
     Program PWSCF v.7.2 starts on 30May2023 at 15:11: 0 

     This program is part of the open-source Quantum ESPRESSO suite
     for quantum simulation of materials; please cite
         "P. Giannozzi et al., J. Phys.:Condens. Matter 21 395502 (2009);
         "P. Giannozzi et al., J. Phys.:Condens. Matter 29 465901 (2017);
         "P. Giannozzi et al., J. Chem. Phys. 152 154105 (2020);
          URL http://www.quantum-espresso.org", 
     in publications or presentations arising from this work. More details at
     http://www.quantum-espresso.org/quote

     Parallel version (MPI), running on    28 processors

     MPI processes distributed on     1 nodes
     36611 MiB available memory on the printing compute node when the environment starts
 
     Waiting for input...
     Reading input from standard input
Warning: card &CELL ignored
Warning: card / ignored

     Current dimensions of program PWSCF are:
     Max number of different atomic species (ntypx) = 10
     Max number of k-points (npk) =  40000
     Max angular momentum in pseudopotentials (lmaxx) =  4
     file Mn.pbesol-spn-rrkjus_psl.0.3.1.UPF: wavefunction(s)  3D renormalized
 
     R & G space division:  proc/nbgrp/npool/nimage =      28
     Subspace diagonalization in iterative solution of the eigenvalue problem:
     one sub-group per band group will be used
     scalapack distributed-memory algorithm (size of sub-group:  2*  2 procs)

 
     Parallelization info
     --------------------
     sticks:   dense  smooth     PW     G-vecs:    dense   smooth      PW
     Min         109     109     27                 3884     3884     484
     Max         110     110     28                 3888     3888     488
     Sum        3065    3065    767               108805   108805   13601
 
     Using Slab Decomposition
 


     bravais-lattice index     =            0
     lattice parameter (alat)  =      15.2739  a.u.
     unit-cell volume          =    3135.2395 (a.u.)^3
     number of atoms/cell      =           32
     number of atomic types    =            3
     number of electrons       =       347.00
     number of Kohn-Sham states=          209
     kinetic-energy cutoff     =      40.4242  Ry
     charge density cutoff     =     161.6969  Ry
     scf convergence threshold =      1.0E-06
     mixing beta               =       0.7000
     number of iterations used =            8  plain     mixing
     energy convergence thresh.=      1.0E-04
     force convergence thresh. =      1.0E-03
     Exchange-correlation= PBESOL
                           (   1   4  10   8   0   0   0)
     nstep                     =           50


     celldm(1)=  15.273892  celldm(2)=   0.000000  celldm(3)=   0.000000
     celldm(4)=   0.000000  celldm(5)=   0.000000  celldm(6)=   0.000000

     crystal axes: (cart. coord. in units of alat)
               a(1) = (   0.676603   0.390637   0.624189 )  
               a(2) = (  -0.451068   0.781274   0.624189 )  
               a(3) = (   0.000000   0.000000   1.248378 )  

     reciprocal axes: (cart. coord. in units 2 pi/alat)
               b(1) = (  1.108479  0.639981  0.000000 )  
               b(2) = ( -0.554240  0.959971  0.000000 )  
               b(3) = ( -0.277120 -0.799976  0.801040 )  


     PseudoPot. # 1 for Ni read from file:
     /home/valmzztt/Intermetallic_alloys/pseudos/Ni.pbesol-spn-rrkjus_psl.1.0.0.UPF
     MD5 check sum: 6fc0a587bf949a08f2faed986b854013
     Pseudo is Ultrasoft + core correction, Zval = 18.0
     Generated using &quot;atomic&quot; code by A. Dal Corso  v.6.3
     Using radial grid of 1195 points,  6 beta functions with: 
                l(1) =   0
                l(2) =   0
                l(3) =   1
                l(4) =   1
                l(5) =   2
                l(6) =   2
     Q(r) pseudized with 0 coefficients 


     PseudoPot. # 2 for Mn read from file:
     /home/valmzztt/Intermetallic_alloys/pseudos/Mn.pbesol-spn-rrkjus_psl.0.3.1.UPF
     MD5 check sum: 61e28eea34dae291f95a967fe31318f1
     Pseudo is Ultrasoft + core correction, Zval = 15.0
     Generated using &quot;atomic&quot; code by A. Dal Corso  v.6.3
     Using radial grid of 1187 points,  6 beta functions with: 
                l(1) =   0
                l(2) =   0
                l(3) =   1
                l(4) =   1
                l(5) =   2
                l(6) =   2
     Q(r) pseudized with 0 coefficients 


     PseudoPot. # 3 for As read from file:
     /home/valmzztt/Intermetallic_alloys/pseudos/As.pbesol-n-rrkjus_psl.1.0.0.UPF
     MD5 check sum: 2fb13bbab3d0b4e108be5408f3d6fe7c
     Pseudo is Ultrasoft + core correction, Zval =  5.0
     Generated using &quot;atomic&quot; code by A. Dal Corso  v.6.3
     Using radial grid of 1209 points,  4 beta functions with: 
                l(1) =   0
                l(2) =   0
                l(3) =   1
                l(4) =   1
     Q(r) pseudized with 0 coefficients 


     atomic species   valence    mass     pseudopotential
        Ni            18.00    58.69340     Ni( 1.00)
        Mn            15.00    54.93804     Mn( 1.00)
        As             5.00    74.92159     As( 1.00)

     No symmetry found



   Cartesian axes

     site n.     atom                  positions (alat units)
         1           Ni  tau(   1) = (  -0.2255342   0.3906368   0.3120944  )
         2           Mn  tau(   2) = (  -0.2255342   0.3906368   0.6241888  )
         3           Ni  tau(   3) = (  -0.2255342   0.3906368   0.9362833  )
         4           Ni  tau(   4) = (  -0.2255342   0.3906368   1.2483777  )
         5           As  tau(   5) = (  -0.2255342   0.6510613   0.7802360  )
         6           As  tau(   6) = (  -0.2255342   0.6510613   1.4044249  )
         7           Ni  tau(   7) = (   0.0000000   0.0000000   0.0000000  )
         8           Ni  tau(   8) = (   0.0000000   0.0000000   0.3120944  )
         9           Ni  tau(   9) = (   0.0000000   0.0000000   0.6241888  )
        10           Mn  tau(  10) = (   0.0000000   0.0000000   0.9362833  )
        11           As  tau(  11) = (  -0.0000000   0.2604245   0.7802360  )
        12           As  tau(  12) = (  -0.0000000   0.2604245   1.4044249  )
        13           As  tau(  13) = (   0.0000000   0.5208490   1.0923305  )
        14           As  tau(  14) = (   0.0000000   0.5208490   1.7165193  )
        15           Mn  tau(  15) = (   0.0000000   0.7812735   0.9362833  )
        16           Mn  tau(  16) = (   0.0000000   0.7812735   1.2483777  )
        17           Ni  tau(  17) = (   0.0000000   0.7812735   1.5604721  )
        18           Ni  tau(  18) = (   0.0000000   0.7812735   1.8725665  )
        19           As  tau(  19) = (   0.2255342   0.1302122   0.4681416  )
        20           As  tau(  20) = (   0.2255342   0.1302122   1.0923305  )
        21           Mn  tau(  21) = (   0.2255342   0.3906368   0.6241888  )
        22           Mn  tau(  22) = (   0.2255342   0.3906368   0.9362833  )
        23           Ni  tau(  23) = (   0.2255342   0.3906368   1.2483777  )
        24           Mn  tau(  24) = (   0.2255342   0.3906368   1.5604721  )
        25           As  tau(  25) = (   0.2255342   0.6510613   0.7802360  )
        26           As  tau(  26) = (   0.2255342   0.6510613   1.4044249  )
        27           As  tau(  27) = (   0.2255342   0.9114858   1.0923305  )
        28           As  tau(  28) = (   0.2255342   0.9114858   1.7165193  )
        29           As  tau(  29) = (   0.4510685   0.2604245   0.7802360  )
        30           As  tau(  30) = (   0.4510685   0.2604245   1.4044249  )
        31           As  tau(  31) = (   0.4510685   0.5208490   1.0923305  )
        32           As  tau(  32) = (   0.4510685   0.5208490   1.7165193  )

     number of k points=     1  Gaussian smearing, width (Ry)=  0.0147
                       cart. coord. in units 2pi/alat
        k(    1) = (   0.0000000   0.0000000   0.0000000), wk =   2.0000000

     Dense  grid:   108805 G-vectors     FFT dimensions: (  64,  72,  80)

     Estimated max dynamical RAM per process >      24.35 MB

     Estimated total dynamical RAM >     681.69 MB

     Check: negative core charge=   -0.000052

     Initial potential from superposition of free atoms

     starting charge     346.9911, renormalised to     347.0000
     Starting wfcs are  224 randomized atomic wfcs

     total cpu time spent up to now is        0.8 secs

     Self-consistent Calculation

     iteration #  1     ecut=    40.42 Ry     beta= 0.70
     Davidson diagonalization with overlap
     ethr =  1.00E-02,  avg # of iterations =  3.0

     total cpu time spent up to now is        1.5 secs

     total energy              =   -4867.61549095 Ry
     estimated scf accuracy    <       6.65213830 Ry

     iteration #  2     ecut=    40.42 Ry     beta= 0.70
     Davidson diagonalization with overlap
     ethr =  1.92E-03,  avg # of iterations =  7.0

     total cpu time spent up to now is        2.8 secs

     total energy              =   -4861.46475161 Ry
     estimated scf accuracy    <     154.93314550 Ry

     iteration #  3     ecut=    40.42 Ry     beta= 0.70
     Davidson diagonalization with overlap
     ethr =  1.92E-03,  avg # of iterations =  8.0

     total cpu time spent up to now is        4.2 secs

     total energy              =   -4862.89408385 Ry
     estimated scf accuracy    <     231.88162745 Ry

     iteration #  4     ecut=    40.42 Ry     beta= 0.70
     Davidson diagonalization with overlap
     ethr =  1.92E-03,  avg # of iterations =  4.0

     total cpu time spent up to now is        5.0 secs

     total energy              =   -4871.78206143 Ry
     estimated scf accuracy    <       9.73506475 Ry

     iteration #  5     ecut=    40.42 Ry     beta= 0.70
     Davidson diagonalization with overlap
     ethr =  1.92E-03,  avg # of iterations =  2.0

     total cpu time spent up to now is        5.6 secs

     total energy              =   -4871.88090501 Ry
     estimated scf accuracy    <      12.90788522 Ry

     iteration #  6     ecut=    40.42 Ry     beta= 0.70
     Davidson diagonalization with overlap
     ethr =  1.92E-03,  avg # of iterations =  1.0

     total cpu time spent up to now is        6.1 secs

     total energy              =   -4871.83233764 Ry
     estimated scf accuracy    <      17.40729368 Ry

     iteration #  7     ecut=    40.42 Ry     beta= 0.70
     Davidson diagonalization with overlap
     ethr =  1.92E-03,  avg # of iterations =  1.0

     total cpu time spent up to now is        6.6 secs

     total energy              =   -4871.99527148 Ry
     estimated scf accuracy    <       5.37982681 Ry

     iteration #  8     ecut=    40.42 Ry     beta= 0.70
     Davidson diagonalization with overlap
     ethr =  1.55E-03,  avg # of iterations =  1.0

     total cpu time spent up to now is        7.2 secs

     total energy              =   -4872.10795621 Ry
     estimated scf accuracy    <       5.97415193 Ry

     iteration #  9     ecut=    40.42 Ry     beta= 0.70
     Davidson diagonalization with overlap
     ethr =  1.55E-03,  avg # of iterations =  1.0

     total cpu time spent up to now is        7.7 secs

     total energy              =   -4872.13508860 Ry
     estimated scf accuracy    <       3.70411021 Ry

     iteration # 10     ecut=    40.42 Ry     beta= 0.70
     Davidson diagonalization with overlap
     ethr =  1.07E-03,  avg # of iterations =  1.0

     total cpu time spent up to now is        8.2 secs

     total energy              =   -4872.19449338 Ry
     estimated scf accuracy    <       3.06075305 Ry

     iteration # 11     ecut=    40.42 Ry     beta= 0.70
     Davidson diagonalization with overlap
     ethr =  8.82E-04,  avg # of iterations =  1.0

     total cpu time spent up to now is        8.7 secs

     total energy              =   -4872.26205683 Ry
     estimated scf accuracy    <       0.34726439 Ry

     iteration # 12     ecut=    40.42 Ry     beta= 0.70
     Davidson diagonalization with overlap
     ethr =  1.00E-04,  avg # of iterations =  2.0

     total cpu time spent up to now is        9.3 secs

     total energy              =   -4872.13465748 Ry
     estimated scf accuracy    <       1.88213263 Ry

     iteration # 13     ecut=    40.42 Ry     beta= 0.70
     Davidson diagonalization with overlap
     ethr =  1.00E-04,  avg # of iterations =  3.0

     total cpu time spent up to now is       10.1 secs

     total energy              =   -4871.76311270 Ry
     estimated scf accuracy    <       8.30942690 Ry

     iteration # 14     ecut=    40.42 Ry     beta= 0.70
     Davidson diagonalization with overlap
     ethr =  1.00E-04,  avg # of iterations =  3.0

     total cpu time spent up to now is       10.8 secs

     total energy              =   -4871.90441821 Ry
     estimated scf accuracy    <      11.28600372 Ry

     iteration # 15     ecut=    40.42 Ry     beta= 0.70
     Davidson diagonalization with overlap
     ethr =  1.00E-04,  avg # of iterations =  2.0

     total cpu time spent up to now is       11.5 secs

     total energy              =   -4872.23494072 Ry
     estimated scf accuracy    <       1.18529033 Ry

     iteration # 16     ecut=    40.42 Ry     beta= 0.70
     Davidson diagonalization with overlap
     ethr =  1.00E-04,  avg # of iterations =  1.0

     total cpu time spent up to now is       12.0 secs

     total energy              =   -4872.24324296 Ry
     estimated scf accuracy    <       0.72615920 Ry

     iteration # 17     ecut=    40.42 Ry     beta= 0.70
     Davidson diagonalization with overlap
     ethr =  1.00E-04,  avg # of iterations =  2.0

     total cpu time spent up to now is       12.6 secs

     total energy              =   -4872.17840082 Ry
     estimated scf accuracy    <       3.95789012 Ry

     iteration # 18     ecut=    40.42 Ry     beta= 0.70
     Davidson diagonalization with overlap
     ethr =  1.00E-04,  avg # of iterations =  1.0

     total cpu time spent up to now is       13.1 secs

     total energy              =   -4872.25886189 Ry
     estimated scf accuracy    <       0.32560306 Ry

     iteration # 19     ecut=    40.42 Ry     beta= 0.70
     Davidson diagonalization with overlap
     ethr =  9.38E-05,  avg # of iterations =  1.0

     total cpu time spent up to now is       13.6 secs

     total energy              =   -4872.22272901 Ry
     estimated scf accuracy    <       1.65847397 Ry

     iteration # 20     ecut=    40.42 Ry     beta= 0.70
     Davidson diagonalization with overlap
     ethr =  9.38E-05,  avg # of iterations =  2.0

     total cpu time spent up to now is       14.2 secs

     total energy              =   -4872.18167076 Ry
     estimated scf accuracy    <       3.97336283 Ry

     iteration # 21     ecut=    40.42 Ry     beta= 0.70
     Davidson diagonalization with overlap
     ethr =  9.38E-05,  avg # of iterations =  2.0

     total cpu time spent up to now is       14.8 secs

     total energy              =   -4872.20316689 Ry
     estimated scf accuracy    <       1.17404456 Ry

     iteration # 22     ecut=    40.42 Ry     beta= 0.70
     Davidson diagonalization with overlap
     ethr =  9.38E-05,  avg # of iterations =  3.0

     total cpu time spent up to now is       15.5 secs

     total energy              =   -4871.95918768 Ry
     estimated scf accuracy    <      13.29510217 Ry

     iteration # 23     ecut=    40.42 Ry     beta= 0.70
     Davidson diagonalization with overlap
     ethr =  9.38E-05,  avg # of iterations =  2.0

     total cpu time spent up to now is       16.1 secs

     total energy              =   -4872.23672749 Ry
     estimated scf accuracy    <       0.78170745 Ry

     iteration # 24     ecut=    40.42 Ry     beta= 0.70
     Davidson diagonalization with overlap
     ethr =  9.38E-05,  avg # of iterations =  2.0

     total cpu time spent up to now is       16.7 secs

     total energy              =   -4872.20580330 Ry
     estimated scf accuracy    <       1.67591515 Ry

     iteration # 25     ecut=    40.42 Ry     beta= 0.70
     Davidson diagonalization with overlap
     ethr =  9.38E-05,  avg # of iterations =  2.0

     total cpu time spent up to now is       17.2 secs

     total energy              =   -4872.15885861 Ry
     estimated scf accuracy    <       3.22494320 Ry

     iteration # 26     ecut=    40.42 Ry     beta= 0.70
     Davidson diagonalization with overlap
     ethr =  9.38E-05,  avg # of iterations =  3.0

     total cpu time spent up to now is       17.9 secs

     total energy              =   -4871.91407771 Ry
     estimated scf accuracy    <      13.53283989 Ry

     iteration # 27     ecut=    40.42 Ry     beta= 0.70
     Davidson diagonalization with overlap
     ethr =  9.38E-05,  avg # of iterations =  2.0

     total cpu time spent up to now is       18.5 secs

     total energy              =   -4872.09267380 Ry
     estimated scf accuracy    <       6.88406610 Ry

     iteration # 28     ecut=    40.42 Ry     beta= 0.70
     Davidson diagonalization with overlap
     ethr =  9.38E-05,  avg # of iterations =  2.0

     total cpu time spent up to now is       19.2 secs

     total energy              =   -4872.06248103 Ry
     estimated scf accuracy    <       5.46262790 Ry

     iteration # 29     ecut=    40.42 Ry     beta= 0.70
     Davidson diagonalization with overlap
     ethr =  9.38E-05,  avg # of iterations =  2.0

     total cpu time spent up to now is       19.8 secs

     total energy              =   -4871.94189528 Ry
     estimated scf accuracy    <      10.97273447 Ry

     iteration # 30     ecut=    40.42 Ry     beta= 0.70
     Davidson diagonalization with overlap
     ethr =  9.38E-05,  avg # of iterations =  3.0

     total cpu time spent up to now is       20.5 secs

     total energy              =   -4871.77386132 Ry
     estimated scf accuracy    <      22.49260991 Ry

     iteration # 31     ecut=    40.42 Ry     beta= 0.70
     Davidson diagonalization with overlap
     ethr =  9.38E-05,  avg # of iterations =  3.0

     total cpu time spent up to now is       21.3 secs

     total energy              =   -4871.88066036 Ry
     estimated scf accuracy    <      11.54510962 Ry

     iteration # 32     ecut=    40.42 Ry     beta= 0.70
     Davidson diagonalization with overlap
     ethr =  9.38E-05,  avg # of iterations =  3.0

     total cpu time spent up to now is       22.0 secs

     total energy              =   -4872.03156495 Ry
     estimated scf accuracy    <       6.09842109 Ry

     iteration # 33     ecut=    40.42 Ry     beta= 0.70
     Davidson diagonalization with overlap
     ethr =  9.38E-05,  avg # of iterations =  4.0

     total cpu time spent up to now is       22.9 secs

     total energy              =   -4870.80929938 Ry
     estimated scf accuracy    <      52.83083280 Ry

     iteration # 34     ecut=    40.42 Ry     beta= 0.70
     Davidson diagonalization with overlap
     ethr =  9.38E-05,  avg # of iterations =  5.0

     total cpu time spent up to now is       23.8 secs

     total energy              =   -4870.86997673 Ry
     estimated scf accuracy    <      47.54438046 Ry

     iteration # 35     ecut=    40.42 Ry     beta= 0.70
     Davidson diagonalization with overlap
     ethr =  9.38E-05,  avg # of iterations = 12.0

     total cpu time spent up to now is       25.1 secs

     total energy              =   -4871.18800890 Ry
     estimated scf accuracy    <      31.88842954 Ry

     iteration # 36     ecut=    40.42 Ry     beta= 0.70
     Davidson diagonalization with overlap
     ethr =  9.38E-05,  avg # of iterations =  6.0

     total cpu time spent up to now is       26.2 secs

     total energy              =   -4871.49093591 Ry
     estimated scf accuracy    <      18.63862354 Ry

     iteration # 37     ecut=    40.42 Ry     beta= 0.70
     Davidson diagonalization with overlap
     ethr =  9.38E-05,  avg # of iterations =  7.0

     total cpu time spent up to now is       27.6 secs

     total energy              =   -4870.09928346 Ry
     estimated scf accuracy    <      67.52922995 Ry

     iteration # 38     ecut=    40.42 Ry     beta= 0.70
     Davidson diagonalization with overlap
     ethr =  9.38E-05,  avg # of iterations =  9.0

     total cpu time spent up to now is       29.1 secs

     total energy              =   -4869.46703519 Ry
     estimated scf accuracy    <      88.55745339 Ry

     iteration # 39     ecut=    40.42 Ry     beta= 0.70
     Davidson diagonalization with overlap
     ethr =  9.38E-05,  avg # of iterations =  9.0

     total cpu time spent up to now is       30.6 secs

     total energy              =   -4870.62450122 Ry
     estimated scf accuracy    <      49.07458767 Ry

     iteration # 40     ecut=    40.42 Ry     beta= 0.70
     Davidson diagonalization with overlap
     ethr =  9.38E-05,  avg # of iterations =  5.0

     total cpu time spent up to now is       31.5 secs

     total energy              =   -4870.98992380 Ry
     estimated scf accuracy    <      37.22563651 Ry

     iteration # 41     ecut=    40.42 Ry     beta= 0.70
     Davidson diagonalization with overlap
     ethr =  9.38E-05,  avg # of iterations =  6.0

     total cpu time spent up to now is       32.7 secs

     total energy              =   -4867.56589690 Ry
     estimated scf accuracy    <     109.45729697 Ry

     iteration # 42     ecut=    40.42 Ry     beta= 0.70
     Davidson diagonalization with overlap
     ethr =  9.38E-05,  avg # of iterations = 16.0

     total cpu time spent up to now is       34.5 secs

     total energy              =   -4866.38251134 Ry
     estimated scf accuracy    <     175.43163180 Ry

     iteration # 43     ecut=    40.42 Ry     beta= 0.70
     Davidson diagonalization with overlap
     ethr =  9.38E-05,  avg # of iterations = 10.0

     total cpu time spent up to now is       36.2 secs

     total energy              =   -4868.99399768 Ry
     estimated scf accuracy    <      96.58690687 Ry

     iteration # 44     ecut=    40.42 Ry     beta= 0.70
     Davidson diagonalization with overlap
     ethr =  9.38E-05,  avg # of iterations = 12.0

     total cpu time spent up to now is       37.6 secs

     total energy              =   -4869.22648582 Ry
     estimated scf accuracy    <      91.14039230 Ry

     iteration # 45     ecut=    40.42 Ry     beta= 0.70
     Davidson diagonalization with overlap
     ethr =  9.38E-05,  avg # of iterations = 12.0

     total cpu time spent up to now is       39.8 secs

     total energy              =   -4867.36887242 Ry
     estimated scf accuracy    <      94.66140756 Ry

     iteration # 46     ecut=    40.42 Ry     beta= 0.70
     Davidson diagonalization with overlap
     ethr =  9.38E-05,  avg # of iterations = 14.0

     total cpu time spent up to now is       42.0 secs

     total energy              =   -4866.51582784 Ry
     estimated scf accuracy    <     136.77061784 Ry

     iteration # 47     ecut=    40.42 Ry     beta= 0.70
     Davidson diagonalization with overlap
     ethr =  9.38E-05,  avg # of iterations = 14.0

     total cpu time spent up to now is       44.2 secs

     total energy              =   -4868.28458648 Ry
     estimated scf accuracy    <     125.28741127 Ry

     iteration # 48     ecut=    40.42 Ry     beta= 0.70
     Davidson diagonalization with overlap
     ethr =  9.38E-05,  avg # of iterations = 14.0

     total cpu time spent up to now is       46.3 secs

     total energy              =   -4867.96445206 Ry
     estimated scf accuracy    <      95.38492838 Ry

     iteration # 49     ecut=    40.42 Ry     beta= 0.70
     Davidson diagonalization with overlap
     ethr =  9.38E-05,  avg # of iterations = 13.0

     total cpu time spent up to now is       48.2 secs

     total energy              =   -4860.72251522 Ry
     estimated scf accuracy    <     284.65838751 Ry

     iteration # 50     ecut=    40.42 Ry     beta= 0.70
     Davidson diagonalization with overlap
     ethr =  9.38E-05,  avg # of iterations = 13.0

     total cpu time spent up to now is       50.6 secs

     total energy              =   -4859.60005439 Ry
     estimated scf accuracy    <     255.77173574 Ry

     iteration # 51     ecut=    40.42 Ry     beta= 0.70
     Davidson diagonalization with overlap
     ethr =  9.38E-05,  avg # of iterations = 11.0

     total cpu time spent up to now is       52.7 secs

     total energy              =   -4863.18667996 Ry
     estimated scf accuracy    <     241.66256126 Ry

     iteration # 52     ecut=    40.42 Ry     beta= 0.70
     Davidson diagonalization with overlap
     ethr =  9.38E-05,  avg # of iterations = 11.0

     total cpu time spent up to now is       54.9 secs

     total energy              =   -4868.36803850 Ry
     estimated scf accuracy    <      88.33451359 Ry

     iteration # 53     ecut=    40.42 Ry     beta= 0.70
     Davidson diagonalization with overlap
     ethr =  9.38E-05,  avg # of iterations = 11.0

     total cpu time spent up to now is       56.7 secs

     total energy              =   -4863.09402979 Ry
     estimated scf accuracy    <     200.94975880 Ry

     iteration # 54     ecut=    40.42 Ry     beta= 0.70
     Davidson diagonalization with overlap
     ethr =  9.38E-05,  avg # of iterations = 13.0

     total cpu time spent up to now is       59.0 secs

     total energy              =   -4862.54356978 Ry
     estimated scf accuracy    <     171.17432363 Ry

     iteration # 55     ecut=    40.42 Ry     beta= 0.70
     Davidson diagonalization with overlap
     ethr =  9.38E-05,  avg # of iterations = 13.0

     total cpu time spent up to now is       61.2 secs

     total energy              =   -4863.26871799 Ry
     estimated scf accuracy    <     201.82799104 Ry

     iteration # 56     ecut=    40.42 Ry     beta= 0.70
     Davidson diagonalization with overlap
     c_bands:  1 eigenvalues not converged
     ethr =  9.38E-05,  avg # of iterations = 20.0

     total cpu time spent up to now is       63.9 secs

     total energy              =   -4866.12953860 Ry
     estimated scf accuracy    <     151.98029985 Ry

     iteration # 57     ecut=    40.42 Ry     beta= 0.70
     Davidson diagonalization with overlap
     c_bands:  1 eigenvalues not converged
     ethr =  9.38E-05,  avg # of iterations = 20.0

     total cpu time spent up to now is       66.6 secs

     total energy              =   -4862.05753783 Ry
     estimated scf accuracy    <     207.81135340 Ry

     iteration # 58     ecut=    40.42 Ry     beta= 0.70
     Davidson diagonalization with overlap
     ethr =  9.38E-05,  avg # of iterations = 15.0

     total cpu time spent up to now is       68.9 secs

     total energy              =   -4862.97615776 Ry
     estimated scf accuracy    <     211.84961487 Ry

     iteration # 59     ecut=    40.42 Ry     beta= 0.70
     Davidson diagonalization with overlap
     ethr =  9.38E-05,  avg # of iterations = 13.0

     total cpu time spent up to now is       71.4 secs

     total energy              =   -4862.93217090 Ry
     estimated scf accuracy    <     246.02173972 Ry

     iteration # 60     ecut=    40.42 Ry     beta= 0.70
     Davidson diagonalization with overlap
     ethr =  9.38E-05,  avg # of iterations = 14.0

     total cpu time spent up to now is       73.8 secs

     total energy              =   -4863.27575892 Ry
     estimated scf accuracy    <     208.80181017 Ry

     iteration # 61     ecut=    40.42 Ry     beta= 0.70
     Davidson diagonalization with overlap
     ethr =  9.38E-05,  avg # of iterations = 11.0

     total cpu time spent up to now is       75.9 secs

     total energy              =   -4861.56173186 Ry
     estimated scf accuracy    <     208.95255699 Ry

     iteration # 62     ecut=    40.42 Ry     beta= 0.70
     Davidson diagonalization with overlap
     ethr =  9.38E-05,  avg # of iterations = 12.0

     total cpu time spent up to now is       77.9 secs

     total energy              =   -4863.62792943 Ry
     estimated scf accuracy    <     173.67656896 Ry

     iteration # 63     ecut=    40.42 Ry     beta= 0.70
     Davidson diagonalization with overlap
     ethr =  9.38E-05,  avg # of iterations = 12.0

     total cpu time spent up to now is       80.2 secs

     total energy              =   -4857.55331657 Ry
     estimated scf accuracy    <     315.67280314 Ry

     iteration # 64     ecut=    40.42 Ry     beta= 0.70
     Davidson diagonalization with overlap
     ethr =  9.38E-05,  avg # of iterations = 12.0

     total cpu time spent up to now is       82.5 secs

     total energy              =   -4862.54516071 Ry
     estimated scf accuracy    <     229.90839110 Ry

     iteration # 65     ecut=    40.42 Ry     beta= 0.70
     Davidson diagonalization with overlap
     ethr =  9.38E-05,  avg # of iterations = 11.0

     total cpu time spent up to now is       84.5 secs

     total energy              =   -4864.66881496 Ry
     estimated scf accuracy    <     163.40228980 Ry

     iteration # 66     ecut=    40.42 Ry     beta= 0.70
     Davidson diagonalization with overlap
     ethr =  9.38E-05,  avg # of iterations = 16.0

     total cpu time spent up to now is       86.7 secs

     total energy              =   -4863.24231972 Ry
     estimated scf accuracy    <     208.83931417 Ry

     iteration # 67     ecut=    40.42 Ry     beta= 0.70
     Davidson diagonalization with overlap
     ethr =  9.38E-05,  avg # of iterations = 11.0

     total cpu time spent up to now is       88.8 secs

     total energy              =   -4860.80433029 Ry
     estimated scf accuracy    <     272.64821086 Ry

     iteration # 68     ecut=    40.42 Ry     beta= 0.70
     Davidson diagonalization with overlap
     ethr =  9.38E-05,  avg # of iterations = 12.0

     total cpu time spent up to now is       91.1 secs

     total energy              =   -4861.87976043 Ry
     estimated scf accuracy    <     216.99726102 Ry

     iteration # 69     ecut=    40.42 Ry     beta= 0.70
     Davidson diagonalization with overlap
     ethr =  9.38E-05,  avg # of iterations = 12.0

     total cpu time spent up to now is       93.4 secs

     total energy              =   -4857.87674477 Ry
     estimated scf accuracy    <     346.39196350 Ry

     iteration # 70     ecut=    40.42 Ry     beta= 0.70
     Davidson diagonalization with overlap
     ethr =  9.38E-05,  avg # of iterations = 13.0

     total cpu time spent up to now is       95.6 secs

     total energy              =   -4857.69215057 Ry
     estimated scf accuracy    <     275.04032796 Ry

     iteration # 71     ecut=    40.42 Ry     beta= 0.70
     Davidson diagonalization with overlap
     ethr =  9.38E-05,  avg # of iterations = 15.0

     total cpu time spent up to now is       98.1 secs

     total energy              =   -4859.20619088 Ry
     estimated scf accuracy    <     261.24785840 Ry

     iteration # 72     ecut=    40.42 Ry     beta= 0.70
     Davidson diagonalization with overlap
     ethr =  9.38E-05,  avg # of iterations = 13.0

     total cpu time spent up to now is      100.6 secs

     total energy              =   -4863.43563480 Ry
     estimated scf accuracy    <     187.47147831 Ry

     iteration # 73     ecut=    40.42 Ry     beta= 0.70
     Davidson diagonalization with overlap
     ethr =  9.38E-05,  avg # of iterations = 13.0

     total cpu time spent up to now is      103.0 secs

     total energy              =   -4859.21789388 Ry
     estimated scf accuracy    <     307.89674551 Ry

     iteration # 74     ecut=    40.42 Ry     beta= 0.70
     Davidson diagonalization with overlap
     ethr =  9.38E-05,  avg # of iterations = 14.0

     total cpu time spent up to now is      105.7 secs

     total energy              =   -4860.63229792 Ry
     estimated scf accuracy    <     236.85796178 Ry

     iteration # 75     ecut=    40.42 Ry     beta= 0.70
     Davidson diagonalization with overlap
     ethr =  9.38E-05,  avg # of iterations = 19.0

     total cpu time spent up to now is      108.2 secs

     total energy              =   -4860.81512353 Ry
     estimated scf accuracy    <     218.05785796 Ry

     iteration # 76     ecut=    40.42 Ry     beta= 0.70
     Davidson diagonalization with overlap
     ethr =  9.38E-05,  avg # of iterations = 13.0

     total cpu time spent up to now is      110.4 secs

     total energy              =   -4862.47796146 Ry
     estimated scf accuracy    <     233.05129286 Ry

     iteration # 77     ecut=    40.42 Ry     beta= 0.70
     Davidson diagonalization with overlap
     ethr =  9.38E-05,  avg # of iterations = 11.0

     total cpu time spent up to now is      112.5 secs

     total energy              =   -4858.78283017 Ry
     estimated scf accuracy    <     309.70960966 Ry

     iteration # 78     ecut=    40.42 Ry     beta= 0.70
     Davidson diagonalization with overlap
     ethr =  9.38E-05,  avg # of iterations = 13.0

     total cpu time spent up to now is      114.9 secs

     total energy              =   -4861.73632537 Ry
     estimated scf accuracy    <     244.80653221 Ry

     iteration # 79     ecut=    40.42 Ry     beta= 0.70
     Davidson diagonalization with overlap
     ethr =  9.38E-05,  avg # of iterations = 14.0

     total cpu time spent up to now is      117.3 secs

     total energy              =   -4858.07917716 Ry
     estimated scf accuracy    <     339.60787077 Ry

     iteration # 80     ecut=    40.42 Ry     beta= 0.70
     Davidson diagonalization with overlap
     ethr =  9.38E-05,  avg # of iterations = 17.0

     total cpu time spent up to now is      120.1 secs

     total energy              =   -4857.42134690 Ry
     estimated scf accuracy    <     303.51696145 Ry

     iteration # 81     ecut=    40.42 Ry     beta= 0.70
     Davidson diagonalization with overlap
     ethr =  9.38E-05,  avg # of iterations = 14.0

     total cpu time spent up to now is      122.6 secs

     total energy              =   -4858.64581251 Ry
     estimated scf accuracy    <     275.43212496 Ry

     iteration # 82     ecut=    40.42 Ry     beta= 0.70
     Davidson diagonalization with overlap
     ethr =  9.38E-05,  avg # of iterations = 12.0

     total cpu time spent up to now is      124.9 secs

     total energy              =   -4860.91899787 Ry
     estimated scf accuracy    <     219.25431496 Ry

     iteration # 83     ecut=    40.42 Ry     beta= 0.70
     Davidson diagonalization with overlap
     ethr =  9.38E-05,  avg # of iterations = 13.0

     total cpu time spent up to now is      127.3 secs

     total energy              =   -4857.66487221 Ry
     estimated scf accuracy    <     324.45275038 Ry

     iteration # 84     ecut=    40.42 Ry     beta= 0.70
     Davidson diagonalization with overlap
     ethr =  9.38E-05,  avg # of iterations = 12.0

     total cpu time spent up to now is      129.7 secs

     total energy              =   -4857.50199610 Ry
     estimated scf accuracy    <     294.97273041 Ry

     iteration # 85     ecut=    40.42 Ry     beta= 0.70
     Davidson diagonalization with overlap
     ethr =  9.38E-05,  avg # of iterations = 12.0

     total cpu time spent up to now is      132.0 secs

     total energy              =   -4861.24866178 Ry
     estimated scf accuracy    <     215.54814561 Ry

     iteration # 86     ecut=    40.42 Ry     beta= 0.70
     Davidson diagonalization with overlap
     ethr =  9.38E-05,  avg # of iterations = 12.0

     total cpu time spent up to now is      134.2 secs

     total energy              =   -4862.44455811 Ry
     estimated scf accuracy    <     234.13690893 Ry

     iteration # 87     ecut=    40.42 Ry     beta= 0.70
     Davidson diagonalization with overlap
     ethr =  9.38E-05,  avg # of iterations = 14.0

     total cpu time spent up to now is      136.6 secs

     total energy              =   -4858.14039816 Ry
     estimated scf accuracy    <     340.70383010 Ry

     iteration # 88     ecut=    40.42 Ry     beta= 0.70
     Davidson diagonalization with overlap
     ethr =  9.38E-05,  avg # of iterations = 13.0

     total cpu time spent up to now is      139.0 secs

     total energy              =   -4861.39422533 Ry
     estimated scf accuracy    <     241.86593055 Ry

     iteration # 89     ecut=    40.42 Ry     beta= 0.70
     Davidson diagonalization with overlap
     ethr =  9.38E-05,  avg # of iterations = 16.0

     total cpu time spent up to now is      141.5 secs

     total energy              =   -4856.56825513 Ry
     estimated scf accuracy    <     359.32562520 Ry

     iteration # 90     ecut=    40.42 Ry     beta= 0.70
     Davidson diagonalization with overlap
     ethr =  9.38E-05,  avg # of iterations = 13.0

     total cpu time spent up to now is      144.0 secs

     total energy              =   -4857.48506892 Ry
     estimated scf accuracy    <     313.29470562 Ry

     iteration # 91     ecut=    40.42 Ry     beta= 0.70
     Davidson diagonalization with overlap
     ethr =  9.38E-05,  avg # of iterations = 19.0

     total cpu time spent up to now is      146.8 secs

     total energy              =   -4858.66541884 Ry
     estimated scf accuracy    <     269.83033719 Ry

     iteration # 92     ecut=    40.42 Ry     beta= 0.70
     Davidson diagonalization with overlap
     ethr =  9.38E-05,  avg # of iterations = 12.0

     total cpu time spent up to now is      149.1 secs

     total energy              =   -4858.99944227 Ry
     estimated scf accuracy    <     250.25729866 Ry

     iteration # 93     ecut=    40.42 Ry     beta= 0.70
     Davidson diagonalization with overlap
     ethr =  9.38E-05,  avg # of iterations = 12.0

     total cpu time spent up to now is      151.4 secs

     total energy              =   -4857.35154775 Ry
     estimated scf accuracy    <     325.91773730 Ry

     iteration # 94     ecut=    40.42 Ry     beta= 0.70
     Davidson diagonalization with overlap
     ethr =  9.38E-05,  avg # of iterations = 14.0

     total cpu time spent up to now is      153.9 secs

     total energy              =   -4857.30780084 Ry
     estimated scf accuracy    <     309.25843297 Ry

     iteration # 95     ecut=    40.42 Ry     beta= 0.70
     Davidson diagonalization with overlap
     c_bands:  1 eigenvalues not converged
     ethr =  9.38E-05,  avg # of iterations = 20.0

     total cpu time spent up to now is      156.6 secs

     total energy              =   -4860.99495125 Ry
     estimated scf accuracy    <     222.42249780 Ry

     iteration # 96     ecut=    40.42 Ry     beta= 0.70
     Davidson diagonalization with overlap
     ethr =  9.38E-05,  avg # of iterations = 13.0

     total cpu time spent up to now is      158.9 secs

     total energy              =   -4862.35680037 Ry
     estimated scf accuracy    <     234.52170101 Ry

     iteration # 97     ecut=    40.42 Ry     beta= 0.70
     Davidson diagonalization with overlap
     ethr =  9.38E-05,  avg # of iterations = 12.0

     total cpu time spent up to now is      161.1 secs

     total energy              =   -4858.11949064 Ry
     estimated scf accuracy    <     344.91374995 Ry

     iteration # 98     ecut=    40.42 Ry     beta= 0.70
     Davidson diagonalization with overlap
     ethr =  9.38E-05,  avg # of iterations = 13.0

     total cpu time spent up to now is      163.5 secs

     total energy              =   -4861.35596088 Ry
     estimated scf accuracy    <     247.49163142 Ry

     iteration # 99     ecut=    40.42 Ry     beta= 0.70
     Davidson diagonalization with overlap
     ethr =  9.38E-05,  avg # of iterations = 15.0

     total cpu time spent up to now is      166.0 secs

     total energy              =   -4856.34043899 Ry
     estimated scf accuracy    <     342.24426973 Ry

     iteration #100     ecut=    40.42 Ry     beta= 0.70
     Davidson diagonalization with overlap
     ethr =  9.38E-05,  avg # of iterations = 14.0

     total cpu time spent up to now is      168.5 secs

     total energy              =   -4857.08951210 Ry
     estimated scf accuracy    <     324.10112767 Ry

     End of self-consistent calculation

     convergence NOT achieved after 100 iterations: stopping

     Writing config to output data dir ./tutorial.save/
     Message from routine punch:
     wavefunctions written to file
 
     init_run     :      0.50s CPU      0.54s WALL (       1 calls)
     electrons    :    162.54s CPU    167.77s WALL (       1 calls)

     Called by init_run:
     wfcinit      :      0.16s CPU      0.17s WALL (       1 calls)
     potinit      :      0.08s CPU      0.08s WALL (       1 calls)
     hinit0       :      0.20s CPU      0.21s WALL (       1 calls)

     Called by electrons:
     c_bands      :    151.10s CPU    155.57s WALL (     100 calls)
     sum_band     :      7.66s CPU      8.31s WALL (     100 calls)
     v_of_rho     :      0.63s CPU      0.64s WALL (     101 calls)
     newd         :      3.00s CPU      3.01s WALL (     101 calls)
     mix_rho      :      0.15s CPU      0.16s WALL (     100 calls)

     Called by c_bands:
     init_us_2    :      0.31s CPU      0.32s WALL (     201 calls)
     init_us_2:cp :      0.31s CPU      0.32s WALL (     201 calls)
     cegterg      :    149.79s CPU    154.21s WALL (     100 calls)

     Called by *egterg:
     cdiaghg      :     60.00s CPU     62.44s WALL (    1037 calls)
     h_psi        :     46.88s CPU     47.85s WALL (    1038 calls)
     s_psi        :      6.70s CPU      6.71s WALL (    1038 calls)
     g_psi        :      0.32s CPU      0.32s WALL (     937 calls)

     Called by h_psi:
     h_psi:calbec :      6.71s CPU      6.76s WALL (    1038 calls)
     vloc_psi     :     32.98s CPU     33.86s WALL (    1038 calls)
     add_vuspsi   :      6.77s CPU      6.82s WALL (    1038 calls)

     General routines
     calbec       :      7.89s CPU      7.94s WALL (    1138 calls)
     fft          :      0.35s CPU      0.36s WALL (    1112 calls)
     ffts         :      0.04s CPU      0.04s WALL (     100 calls)
     fftw         :     32.02s CPU     32.85s WALL (  250650 calls)
     davcio       :      0.00s CPU      0.00s WALL (      19 calls)
 
     Parallel routines
 
     PWSCF        :   2m43.26s CPU   2m48.59s WALL

 
   This run was terminated on:  15:13:49  30May2023            

=------------------------------------------------------------------------------=
   JOB DONE.
=------------------------------------------------------------------------------=
