
     Program PWSCF v.7.2 starts on 30May2023 at 15:10:51 

     This program is part of the open-source Quantum ESPRESSO suite
     for quantum simulation of materials; please cite
         "P. Giannozzi et al., J. Phys.:Condens. Matter 21 395502 (2009);
         "P. Giannozzi et al., J. Phys.:Condens. Matter 29 465901 (2017);
         "P. Giannozzi et al., J. Chem. Phys. 152 154105 (2020);
          URL http://www.quantum-espresso.org", 
     in publications or presentations arising from this work. More details at
     http://www.quantum-espresso.org/quote

     Parallel version (MPI), running on    28 processors

     MPI processes distributed on     1 nodes
     36629 MiB available memory on the printing compute node when the environment starts
 
     Waiting for input...
     Reading input from standard input
Warning: card &CELL ignored
Warning: card / ignored

     Current dimensions of program PWSCF are:
     Max number of different atomic species (ntypx) = 10
     Max number of k-points (npk) =  40000
     Max angular momentum in pseudopotentials (lmaxx) =  4
     file Mn.pbesol-spn-rrkjus_psl.0.3.1.UPF: wavefunction(s)  3D renormalized
     Found identity + (  0.0000 -0.5000  0.0000) symmetry
     This is a supercell, fractional translations are disabled
     Message from routine setup:
     using ibrav=0 with symmetry is DISCOURAGED, use correct ibrav instead
 
     R & G space division:  proc/nbgrp/npool/nimage =      28
     Subspace diagonalization in iterative solution of the eigenvalue problem:
     a serial algorithm will be used

 
     Parallelization info
     --------------------
     sticks:   dense  smooth     PW     G-vecs:    dense   smooth      PW
     Min          37      37      9                  967      967     119
     Max          38      38     10                  972      972     122
     Sum        1047    1047    257                27129    27129    3355
 
     Using Slab Decomposition
 


     bravais-lattice index     =            0
     lattice parameter (alat)  =       6.8896  a.u.
     unit-cell volume          =     783.8099 (a.u.)^3
     number of atoms/cell      =            8
     number of atomic types    =            3
     number of electrons       =        86.00
     number of Kohn-Sham states=           52
     kinetic-energy cutoff     =      40.4242  Ry
     charge density cutoff     =     161.6969  Ry
     scf convergence threshold =      1.0E-06
     mixing beta               =       0.7000
     number of iterations used =            8  plain     mixing
     energy convergence thresh.=      1.0E-04
     force convergence thresh. =      1.0E-03
     Exchange-correlation= PBESOL
                           (   1   4  10   8   0   0   0)
     nstep                     =           50


     celldm(1)=   6.889571  celldm(2)=   0.000000  celldm(3)=   0.000000
     celldm(4)=   0.000000  celldm(5)=   0.000000  celldm(6)=   0.000000

     crystal axes: (cart. coord. in units of alat)
               a(1) = (   0.500000   0.866025   0.000000 )  
               a(2) = (  -1.000000   1.732051   0.000000 )  
               a(3) = (   0.000000   0.000000   1.383801 )  

     reciprocal axes: (cart. coord. in units 2 pi/alat)
               b(1) = (  1.000000  0.577350  0.000000 )  
               b(2) = ( -0.500000  0.288675  0.000000 )  
               b(3) = (  0.000000  0.000000  0.722647 )  


     PseudoPot. # 1 for Mn read from file:
     /home/valmzztt/Intermetallic_alloys/pseudos/Mn.pbesol-spn-rrkjus_psl.0.3.1.UPF
     MD5 check sum: 61e28eea34dae291f95a967fe31318f1
     Pseudo is Ultrasoft + core correction, Zval = 15.0
     Generated using &quot;atomic&quot; code by A. Dal Corso  v.6.3
     Using radial grid of 1187 points,  6 beta functions with: 
                l(1) =   0
                l(2) =   0
                l(3) =   1
                l(4) =   1
                l(5) =   2
                l(6) =   2
     Q(r) pseudized with 0 coefficients 


     PseudoPot. # 2 for Ni read from file:
     /home/valmzztt/Intermetallic_alloys/pseudos/Ni.pbesol-spn-rrkjus_psl.1.0.0.UPF
     MD5 check sum: 6fc0a587bf949a08f2faed986b854013
     Pseudo is Ultrasoft + core correction, Zval = 18.0
     Generated using &quot;atomic&quot; code by A. Dal Corso  v.6.3
     Using radial grid of 1195 points,  6 beta functions with: 
                l(1) =   0
                l(2) =   0
                l(3) =   1
                l(4) =   1
                l(5) =   2
                l(6) =   2
     Q(r) pseudized with 0 coefficients 


     PseudoPot. # 3 for As read from file:
     /home/valmzztt/Intermetallic_alloys/pseudos/As.pbesol-n-rrkjus_psl.1.0.0.UPF
     MD5 check sum: 2fb13bbab3d0b4e108be5408f3d6fe7c
     Pseudo is Ultrasoft + core correction, Zval =  5.0
     Generated using &quot;atomic&quot; code by A. Dal Corso  v.6.3
     Using radial grid of 1209 points,  4 beta functions with: 
                l(1) =   0
                l(2) =   0
                l(3) =   1
                l(4) =   1
     Q(r) pseudized with 0 coefficients 


     atomic species   valence    mass     pseudopotential
        Mn            15.00    54.93804     Mn( 1.00)
        Ni            18.00    58.69340     Ni( 1.00)
        As             5.00    74.92159     As( 1.00)

      4 Sym. Ops., with inversion, found



   Cartesian axes

     site n.     atom                  positions (alat units)
         1           Mn  tau(   1) = (  -0.5000000   0.8660254   0.0000000  )
         2           Ni  tau(   2) = (  -0.5000000   0.8660254   0.6919003  )
         3           As  tau(   3) = (  -0.5000000   1.4433757   0.3459502  )
         4           As  tau(   4) = (  -0.5000000   2.0207259   1.0378505  )
         5           Mn  tau(   5) = (   0.0000000   0.0000000   0.0000000  )
         6           Ni  tau(   6) = (   0.0000000   0.0000000   0.6919003  )
         7           As  tau(   7) = (  -0.0000000   0.5773503   0.3459502  )
         8           As  tau(   8) = (   0.0000000   1.1547005   1.0378505  )

     number of k points=     1  Gaussian smearing, width (Ry)=  0.0147
                       cart. coord. in units 2pi/alat
        k(    1) = (   0.0000000   0.0000000   0.0000000), wk =   2.0000000

     Dense  grid:    27129 G-vectors     FFT dimensions: (  27,  60,  40)

     Estimated max dynamical RAM per process >       6.97 MB

     Estimated total dynamical RAM >     195.11 MB

     Check: negative core charge=   -0.000057

     Initial potential from superposition of free atoms

     starting charge      85.9977, renormalised to      86.0000
     Starting wfcs are   56 randomized atomic wfcs

     total cpu time spent up to now is        0.4 secs

     Self-consistent Calculation

     iteration #  1     ecut=    40.42 Ry     beta= 0.70
     Davidson diagonalization with overlap
     ethr =  1.00E-02,  avg # of iterations =  2.0

     total cpu time spent up to now is        0.5 secs

     total energy              =   -1183.67358653 Ry
     estimated scf accuracy    <       3.65222578 Ry

     iteration #  2     ecut=    40.42 Ry     beta= 0.70
     Davidson diagonalization with overlap
     ethr =  4.25E-03,  avg # of iterations =  9.0

     total cpu time spent up to now is        0.5 secs

     total energy              =   -1183.86098720 Ry
     estimated scf accuracy    <      51.66694673 Ry

     iteration #  3     ecut=    40.42 Ry     beta= 0.70
     Davidson diagonalization with overlap
     ethr =  4.25E-03,  avg # of iterations =  8.0

     total cpu time spent up to now is        0.6 secs

     total energy              =   -1184.80302178 Ry
     estimated scf accuracy    <      21.07297890 Ry

     iteration #  4     ecut=    40.42 Ry     beta= 0.70
     Davidson diagonalization with overlap
     ethr =  4.25E-03,  avg # of iterations =  2.0

     total cpu time spent up to now is        0.7 secs

     total energy              =   -1186.34032289 Ry
     estimated scf accuracy    <       3.87972063 Ry

     iteration #  5     ecut=    40.42 Ry     beta= 0.70
     Davidson diagonalization with overlap
     ethr =  4.25E-03,  avg # of iterations =  1.0

     total cpu time spent up to now is        0.7 secs

     total energy              =   -1186.31801368 Ry
     estimated scf accuracy    <       2.64113448 Ry

     iteration #  6     ecut=    40.42 Ry     beta= 0.70
     Davidson diagonalization with overlap
     ethr =  3.07E-03,  avg # of iterations =  1.0

     total cpu time spent up to now is        0.8 secs

     total energy              =   -1186.06826992 Ry
     estimated scf accuracy    <       5.31841159 Ry

     iteration #  7     ecut=    40.42 Ry     beta= 0.70
     Davidson diagonalization with overlap
     ethr =  3.07E-03,  avg # of iterations =  2.0

     total cpu time spent up to now is        0.8 secs

     total energy              =   -1186.32715323 Ry
     estimated scf accuracy    <       1.53168320 Ry

     iteration #  8     ecut=    40.42 Ry     beta= 0.70
     Davidson diagonalization with overlap
     ethr =  1.78E-03,  avg # of iterations =  1.0

     total cpu time spent up to now is        0.8 secs

     total energy              =   -1186.32145262 Ry
     estimated scf accuracy    <       1.01327784 Ry

     iteration #  9     ecut=    40.42 Ry     beta= 0.70
     Davidson diagonalization with overlap
     ethr =  1.18E-03,  avg # of iterations =  1.0

     total cpu time spent up to now is        0.9 secs

     total energy              =   -1186.27706045 Ry
     estimated scf accuracy    <       0.71388849 Ry

     iteration # 10     ecut=    40.42 Ry     beta= 0.70
     Davidson diagonalization with overlap
     ethr =  8.30E-04,  avg # of iterations =  1.0

     total cpu time spent up to now is        0.9 secs

     total energy              =   -1186.30533990 Ry
     estimated scf accuracy    <       0.05373988 Ry

     iteration # 11     ecut=    40.42 Ry     beta= 0.70
     Davidson diagonalization with overlap
     ethr =  6.25E-05,  avg # of iterations =  2.0

     total cpu time spent up to now is        1.0 secs

     total energy              =   -1186.30190991 Ry
     estimated scf accuracy    <       0.08488908 Ry

     iteration # 12     ecut=    40.42 Ry     beta= 0.70
     Davidson diagonalization with overlap
     ethr =  6.25E-05,  avg # of iterations =  1.0

     total cpu time spent up to now is        1.0 secs

     total energy              =   -1186.30384198 Ry
     estimated scf accuracy    <       0.00098134 Ry

     iteration # 13     ecut=    40.42 Ry     beta= 0.70
     Davidson diagonalization with overlap
     ethr =  1.14E-06,  avg # of iterations =  6.0

     total cpu time spent up to now is        1.0 secs

     total energy              =   -1186.30408868 Ry
     estimated scf accuracy    <       0.00676092 Ry

     iteration # 14     ecut=    40.42 Ry     beta= 0.70
     Davidson diagonalization with overlap
     ethr =  1.14E-06,  avg # of iterations =  2.0

     total cpu time spent up to now is        1.1 secs

     total energy              =   -1186.30426320 Ry
     estimated scf accuracy    <       0.00006811 Ry

     iteration # 15     ecut=    40.42 Ry     beta= 0.70
     Davidson diagonalization with overlap
     ethr =  7.92E-08,  avg # of iterations =  4.0

     total cpu time spent up to now is        1.1 secs

     total energy              =   -1186.30426730 Ry
     estimated scf accuracy    <       0.00003560 Ry

     iteration # 16     ecut=    40.42 Ry     beta= 0.70
     Davidson diagonalization with overlap
     ethr =  4.14E-08,  avg # of iterations =  2.0

     total cpu time spent up to now is        1.2 secs

     total energy              =   -1186.30426868 Ry
     estimated scf accuracy    <       0.00003598 Ry

     iteration # 17     ecut=    40.42 Ry     beta= 0.70
     Davidson diagonalization with overlap
     ethr =  4.14E-08,  avg # of iterations =  1.0

     total cpu time spent up to now is        1.2 secs

     total energy              =   -1186.30426985 Ry
     estimated scf accuracy    <       0.00001887 Ry

     iteration # 18     ecut=    40.42 Ry     beta= 0.70
     Davidson diagonalization with overlap
     ethr =  2.19E-08,  avg # of iterations =  1.0

     total cpu time spent up to now is        1.2 secs

     End of self-consistent calculation

          k = 0.0000 0.0000 0.0000 (  3355 PWs)   bands (ev):

   -90.4929 -90.4920 -64.9914 -64.9907 -50.6478 -50.6183 -50.5100 -50.4786
   -50.2246 -50.1485 -34.1766 -34.1750 -33.8624 -33.8538 -33.7618 -33.7588
    -1.1781   1.2039   1.7924   2.5366   6.3449   6.3996   8.8883   8.8906
     9.1428   9.1757   9.1813   9.4309   9.9103   9.9470  10.1865  10.5340
    10.6441  11.0423  11.2669  11.6991  11.7055  12.2264  12.5298  13.1507
    13.1532  13.3661  13.3880  13.4203  13.4258  13.7948  14.4283  15.6364
    15.6592  16.4705  16.7716  16.8021

     the Fermi energy is    13.4063 ev

!    total energy              =   -1186.30426988 Ry
     estimated scf accuracy    <       0.00000052 Ry
     smearing contrib. (-TS)   =      -0.03613832 Ry
     internal energy E=F+TS    =   -1186.26813156 Ry

     The total energy is F=E-TS. E is the sum of the following terms:
     one-electron contribution =    -811.91354035 Ry
     hartree contribution      =     448.60330626 Ry
     xc contribution           =    -169.39465720 Ry
     ewald contribution        =    -653.56324027 Ry

     convergence has been achieved in  18 iterations

     Forces acting on atoms (cartesian axes, Ry/au):

     atom    1 type  1   force =     0.00000000    0.00000000    0.00000000
     atom    2 type  2   force =     0.00000000    0.00000000    0.00000000
     atom    3 type  3   force =     0.02242367   -0.01294631   -0.07268273
     atom    4 type  3   force =    -0.02253529    0.01301076    0.07269133
     atom    5 type  1   force =     0.00000000    0.00000000    0.00000000
     atom    6 type  2   force =     0.00000000    0.00000000    0.00000000
     atom    7 type  3   force =     0.02253529   -0.01301076   -0.07269133
     atom    8 type  3   force =    -0.02242367    0.01294631    0.07268273
     The non-local contrib.  to forces
     atom    1 type  1   force =     0.00000000    0.00000000    0.00000000
     atom    2 type  2   force =     0.00000000    0.00000000    0.00000000
     atom    3 type  3   force =    -0.01756657    0.01014206    0.04173161
     atom    4 type  3   force =     0.01743945   -0.01006867   -0.04173533
     atom    5 type  1   force =     0.00000000    0.00000000    0.00000000
     atom    6 type  2   force =     0.00000000    0.00000000    0.00000000
     atom    7 type  3   force =    -0.01743945    0.01006867    0.04173533
     atom    8 type  3   force =     0.01756657   -0.01014206   -0.04173161
     The ionic contribution  to forces
     atom    1 type  1   force =    -0.00000000    0.00000000   -0.00000000
     atom    2 type  2   force =    -0.00000000    0.00000000    0.00000000
     atom    3 type  3   force =     0.00000016   -0.00000009   -1.42680443
     atom    4 type  3   force =    -0.00000016    0.00000009    1.42680443
     atom    5 type  1   force =     0.00000000   -0.00000000    0.00000000
     atom    6 type  2   force =     0.00000000   -0.00000000   -0.00000000
     atom    7 type  3   force =     0.00000016   -0.00000009   -1.42680443
     atom    8 type  3   force =    -0.00000016    0.00000009    1.42680443
     The local contribution  to forces
     atom    1 type  1   force =    -0.00000000    0.00000001   -0.00000000
     atom    2 type  2   force =     0.00000000    0.00000002    0.00000000
     atom    3 type  3   force =     0.03582828   -0.02068547    1.32619512
     atom    4 type  3   force =    -0.03669675    0.02118688   -1.32612981
     atom    5 type  1   force =    -0.00000000    0.00000000   -0.00000000
     atom    6 type  2   force =    -0.00000000    0.00000000   -0.00000000
     atom    7 type  3   force =     0.03669675   -0.02118688    1.32612981
     atom    8 type  3   force =    -0.03582828    0.02068547   -1.32619512
     The core correction contribution to forces
     atom    1 type  1   force =    -0.00000000    0.00000000   -0.00000000
     atom    2 type  2   force =     0.00000000    0.00000000   -0.00000000
     atom    3 type  3   force =     0.00372377   -0.00215106   -0.01387849
     atom    4 type  3   force =    -0.00372097    0.00214944    0.01388056
     atom    5 type  1   force =    -0.00000000    0.00000000    0.00000000
     atom    6 type  2   force =     0.00000000    0.00000000   -0.00000000
     atom    7 type  3   force =     0.00372097   -0.00214944   -0.01388056
     atom    8 type  3   force =    -0.00372377    0.00215106    0.01387849
     The Hubbard contrib.    to forces
     atom    1 type  1   force =     0.00000000    0.00000000    0.00000000
     atom    2 type  2   force =     0.00000000    0.00000000    0.00000000
     atom    3 type  3   force =     0.00000000    0.00000000    0.00000000
     atom    4 type  3   force =     0.00000000    0.00000000    0.00000000
     atom    5 type  1   force =     0.00000000    0.00000000    0.00000000
     atom    6 type  2   force =     0.00000000    0.00000000    0.00000000
     atom    7 type  3   force =     0.00000000    0.00000000    0.00000000
     atom    8 type  3   force =     0.00000000    0.00000000    0.00000000
     The SCF correction term to forces
     atom    1 type  1   force =    -0.00000000    0.00000000    0.00000000
     atom    2 type  2   force =    -0.00000000    0.00000000    0.00000000
     atom    3 type  3   force =     0.00043754   -0.00025261    0.00007346
     atom    4 type  3   force =     0.00044363   -0.00025613   -0.00012852
     atom    5 type  1   force =     0.00000000   -0.00000000    0.00000000
     atom    6 type  2   force =     0.00000000   -0.00000000   -0.00000000
     atom    7 type  3   force =    -0.00044363    0.00025613    0.00012852
     atom    8 type  3   force =    -0.00043754    0.00025261   -0.00007346

     Total force =     0.154366     Total SCF correction =     0.001039

     BFGS Geometry Optimization
     Energy error            =      0.0E+00 Ry
     Gradient error          =      7.3E-02 Ry/Bohr

     number of scf cycles    =   1
     number of bfgs steps    =   0

     energy             new  =   -1186.3042698782 Ry

     new trust radius        =       0.0772084783 bohr
     new conv_thr            =       0.0000010000 Ry


ATOMIC_POSITIONS (angstrom)
Mn           -1.8229020250        3.1573589245        0.0000000000
Ni           -1.8229020250        3.1573589245        2.5225330000
As           -1.8110359463        5.2554139904        1.2228044545
As           -1.8348271707        7.3740558100        3.8222660967
Mn            0.0000000000        0.0000000000        0.0000000000
Ni            0.0000000000        0.0000000000        2.5225330000
As            0.0119251457        2.0980209636        1.2227999033
As           -0.0118660787        4.2166627831        3.8222615455



     Writing config-only to output data dir ./tutorial.save/
     NEW-OLD atomic charge density approx. for the potential

     Check: negative core charge=   -0.000057

     total cpu time spent up to now is        1.3 secs

     Self-consistent Calculation

     iteration #  1     ecut=    40.42 Ry     beta= 0.70
     Davidson diagonalization with overlap
     ethr =  1.00E-06,  avg # of iterations =  7.0

     total cpu time spent up to now is        1.4 secs

     total energy              =   -1186.27429531 Ry
     estimated scf accuracy    <       0.06635118 Ry

     iteration #  2     ecut=    40.42 Ry     beta= 0.70
     Davidson diagonalization with overlap
     ethr =  7.72E-05,  avg # of iterations =  6.0

     total cpu time spent up to now is        1.5 secs

     total energy              =   -1186.08664203 Ry
     estimated scf accuracy    <       7.29471110 Ry

     iteration #  3     ecut=    40.42 Ry     beta= 0.70
     Davidson diagonalization with overlap
     ethr =  7.72E-05,  avg # of iterations =  6.0

     total cpu time spent up to now is        1.5 secs

     total energy              =   -1186.22480071 Ry
     estimated scf accuracy    <       4.58101165 Ry

     iteration #  4     ecut=    40.42 Ry     beta= 0.70
     Davidson diagonalization with overlap
     ethr =  7.72E-05,  avg # of iterations =  6.0

     total cpu time spent up to now is        1.6 secs

     total energy              =   -1186.30085662 Ry
     estimated scf accuracy    <       0.79104658 Ry

     iteration #  5     ecut=    40.42 Ry     beta= 0.70
     Davidson diagonalization with overlap
     ethr =  7.72E-05,  avg # of iterations =  2.0

     total cpu time spent up to now is        1.6 secs

     total energy              =   -1186.32418628 Ry
     estimated scf accuracy    <       0.02480127 Ry

     iteration #  6     ecut=    40.42 Ry     beta= 0.70
     Davidson diagonalization with overlap
     ethr =  2.88E-05,  avg # of iterations =  1.0

     total cpu time spent up to now is        1.7 secs

     total energy              =   -1186.32516546 Ry
     estimated scf accuracy    <       0.00501905 Ry

     iteration #  7     ecut=    40.42 Ry     beta= 0.70
     Davidson diagonalization with overlap
     ethr =  5.84E-06,  avg # of iterations =  3.0

     total cpu time spent up to now is        1.7 secs

     total energy              =   -1186.32570833 Ry
     estimated scf accuracy    <       0.00262553 Ry

     iteration #  8     ecut=    40.42 Ry     beta= 0.70
     Davidson diagonalization with overlap
     ethr =  3.05E-06,  avg # of iterations =  2.0

     total cpu time spent up to now is        1.8 secs

     total energy              =   -1186.32582481 Ry
     estimated scf accuracy    <       0.00029895 Ry

     iteration #  9     ecut=    40.42 Ry     beta= 0.70
     Davidson diagonalization with overlap
     ethr =  3.48E-07,  avg # of iterations =  6.0

     total cpu time spent up to now is        1.8 secs

     total energy              =   -1186.32584904 Ry
     estimated scf accuracy    <       0.00007240 Ry

     iteration # 10     ecut=    40.42 Ry     beta= 0.70
     Davidson diagonalization with overlap
     ethr =  8.42E-08,  avg # of iterations =  2.0

     total cpu time spent up to now is        1.8 secs

     total energy              =   -1186.32585037 Ry
     estimated scf accuracy    <       0.00001671 Ry

     iteration # 11     ecut=    40.42 Ry     beta= 0.70
     Davidson diagonalization with overlap
     ethr =  1.94E-08,  avg # of iterations =  2.0

     total cpu time spent up to now is        1.9 secs

     total energy              =   -1186.32585199 Ry
     estimated scf accuracy    <       0.00000199 Ry

     iteration # 12     ecut=    40.42 Ry     beta= 0.70
     Davidson diagonalization with overlap
     ethr =  2.32E-09,  avg # of iterations =  5.0

     total cpu time spent up to now is        1.9 secs

     total energy              =   -1186.32585235 Ry
     estimated scf accuracy    <       0.00000132 Ry

     iteration # 13     ecut=    40.42 Ry     beta= 0.70
     Davidson diagonalization with overlap
     ethr =  1.54E-09,  avg # of iterations =  2.0

     total cpu time spent up to now is        2.0 secs

     End of self-consistent calculation

          k = 0.0000 0.0000 0.0000 (  3355 PWs)   bands (ev):

   -90.3495 -90.3493 -64.9730 -64.9724 -50.4932 -50.4637 -50.3992 -50.3679
   -50.0640 -49.9879 -34.1430 -34.1418 -33.8460 -33.8365 -33.7741 -33.7710
    -1.1767   1.2343   1.7409   2.5224   6.3320   6.4476   8.9522   8.9562
     9.1443   9.1883   9.2008   9.4763   9.9127   9.9662  10.2120  10.6564
    10.7733  11.2071  11.4298  11.6551  11.6681  12.2714  12.5089  13.1414
    13.1663  13.3448  13.3690  13.4023  13.4621  13.8506  14.4953  15.5819
    15.7166  16.5316  16.8376  16.9490

     the Fermi energy is    13.4016 ev

!    total energy              =   -1186.32585216 Ry
     estimated scf accuracy    <       0.00000032 Ry
     smearing contrib. (-TS)   =      -0.03524638 Ry
     internal energy E=F+TS    =   -1186.29060578 Ry

     The total energy is F=E-TS. E is the sum of the following terms:
     one-electron contribution =    -811.51419679 Ry
     hartree contribution      =     448.56656949 Ry
     xc contribution           =    -169.42009955 Ry
     ewald contribution        =    -653.92287894 Ry

     convergence has been achieved in  13 iterations

     Forces acting on atoms (cartesian axes, Ry/au):

     atom    1 type  1   force =     0.00000000    0.00000000    0.00000000
     atom    2 type  2   force =     0.00000000    0.00000000    0.00000000
     atom    3 type  3   force =     0.02987681   -0.01724938   -0.05395705
     atom    4 type  3   force =    -0.02980084    0.01720553    0.05394500
     atom    5 type  1   force =     0.00000000    0.00000000    0.00000000
     atom    6 type  2   force =     0.00000000    0.00000000    0.00000000
     atom    7 type  3   force =     0.02980084   -0.01720553   -0.05394500
     atom    8 type  3   force =    -0.02987681    0.01724938    0.05395705
     The non-local contrib.  to forces
     atom    1 type  1   force =     0.00000000    0.00000000    0.00000000
     atom    2 type  2   force =     0.00000000    0.00000000    0.00000000
     atom    3 type  3   force =    -0.01896434    0.01094907    0.03950683
     atom    4 type  3   force =     0.01901319   -0.01097727   -0.03950086
     atom    5 type  1   force =     0.00000000    0.00000000    0.00000000
     atom    6 type  2   force =     0.00000000    0.00000000    0.00000000
     atom    7 type  3   force =    -0.01901319    0.01097727    0.03950086
     atom    8 type  3   force =     0.01896434   -0.01094907   -0.03950683
     The ionic contribution  to forces
     atom    1 type  1   force =    -0.00000000    0.00000000   -0.00000000
     atom    2 type  2   force =    -0.00000000    0.00000000    0.00000000
     atom    3 type  3   force =    -0.10100417    0.05831478   -1.08876445
     atom    4 type  3   force =     0.10176318   -0.05875300    1.08873296
     atom    5 type  1   force =     0.00000000   -0.00000000    0.00000000
     atom    6 type  2   force =     0.00000000   -0.00000000   -0.00000000
     atom    7 type  3   force =    -0.10176318    0.05875300   -1.08873296
     atom    8 type  3   force =     0.10100417   -0.05831478    1.08876445
     The local contribution  to forces
     atom    1 type  1   force =    -0.00000000    0.00000001   -0.00000000
     atom    2 type  2   force =     0.00000000    0.00000002    0.00000000
     atom    3 type  3   force =     0.14407868   -0.08318386    1.01064702
     atom    4 type  3   force =    -0.14449587    0.08342473   -1.01067372
     atom    5 type  1   force =    -0.00000000    0.00000000    0.00000000
     atom    6 type  2   force =    -0.00000000    0.00000000   -0.00000000
     atom    7 type  3   force =     0.14449587   -0.08342473    1.01067372
     atom    8 type  3   force =    -0.14407868    0.08318386   -1.01064702
     The core correction contribution to forces
     atom    1 type  1   force =    -0.00000000    0.00000000   -0.00000000
     atom    2 type  2   force =     0.00000000    0.00000000   -0.00000000
     atom    3 type  3   force =     0.00590384   -0.00340879   -0.01559473
     atom    4 type  3   force =    -0.00590924    0.00341190    0.01559304
     atom    5 type  1   force =    -0.00000000    0.00000000    0.00000000
     atom    6 type  2   force =     0.00000000    0.00000000   -0.00000000
     atom    7 type  3   force =     0.00590924   -0.00341190   -0.01559304
     atom    8 type  3   force =    -0.00590384    0.00340879    0.01559473
     The Hubbard contrib.    to forces
     atom    1 type  1   force =     0.00000000    0.00000000    0.00000000
     atom    2 type  2   force =     0.00000000    0.00000000    0.00000000
     atom    3 type  3   force =     0.00000000    0.00000000    0.00000000
     atom    4 type  3   force =     0.00000000    0.00000000    0.00000000
     atom    5 type  1   force =     0.00000000    0.00000000    0.00000000
     atom    6 type  2   force =     0.00000000    0.00000000    0.00000000
     atom    7 type  3   force =     0.00000000    0.00000000    0.00000000
     atom    8 type  3   force =     0.00000000    0.00000000    0.00000000
     The SCF correction term to forces
     atom    1 type  1   force =    -0.00000000   -0.00000000   -0.00000000
     atom    2 type  2   force =     0.00000000    0.00000000    0.00000000
     atom    3 type  3   force =    -0.00013728    0.00007926    0.00024829
     atom    4 type  3   force =    -0.00017201    0.00009931   -0.00020643
     atom    5 type  1   force =     0.00000000    0.00000000    0.00000000
     atom    6 type  2   force =    -0.00000000   -0.00000000    0.00000000
     atom    7 type  3   force =     0.00017201   -0.00009931    0.00020643
     atom    8 type  3   force =     0.00013728   -0.00007926   -0.00024829

     Total force =     0.128029     Total SCF correction =     0.000581
     Energy error            =      2.2E-02 Ry
     Gradient error          =      5.4E-02 Ry/Bohr

     number of scf cycles    =   2
     number of bfgs steps    =   1

     energy             old  =   -1186.3042698782 Ry
     energy             new  =   -1186.3258521585 Ry

     CASE: energy            _new < energy            _old


     WARNING: bfgs curvature condition failed, Theta= 0.990
     new trust radius        =       0.0849293262 bohr
     new conv_thr            =       0.0000005396 Ry


ATOMIC_POSITIONS (angstrom)
Mn           -1.8229020250        3.1573589245        0.0000000000
Ni           -1.8229020250        3.1573589245        2.5225330000
As           -1.7914330046        5.2440962268        1.1839782269
As           -1.8543982087        7.3853551541        3.8610862967
Mn            0.0000000000        0.0000000000        0.0000000000
Ni            0.0000000000        0.0000000000        2.5225330000
As            0.0314961837        2.0867216195        1.1839797033
As           -0.0314690204        4.2279805467        3.8610877731



     Writing config-only to output data dir ./tutorial.save/
     NEW-OLD atomic charge density approx. for the potential

     Check: negative core charge=   -0.000056

     total cpu time spent up to now is        2.1 secs

     Self-consistent Calculation

     iteration #  1     ecut=    40.42 Ry     beta= 0.70
     Davidson diagonalization with overlap
     ethr =  1.00E-06,  avg # of iterations =  7.0

     total cpu time spent up to now is        2.1 secs

     total energy              =   -1186.32343974 Ry
     estimated scf accuracy    <       0.03157244 Ry

     iteration #  2     ecut=    40.42 Ry     beta= 0.70
     Davidson diagonalization with overlap
     ethr =  3.67E-05,  avg # of iterations =  6.0

     total cpu time spent up to now is        2.2 secs

     total energy              =   -1186.22139037 Ry
     estimated scf accuracy    <       3.81829936 Ry

     iteration #  3     ecut=    40.42 Ry     beta= 0.70
     Davidson diagonalization with overlap
     ethr =  3.67E-05,  avg # of iterations =  6.0

     total cpu time spent up to now is        2.3 secs

     total energy              =   -1186.29838809 Ry
     estimated scf accuracy    <       1.78965406 Ry

     iteration #  4     ecut=    40.42 Ry     beta= 0.70
     Davidson diagonalization with overlap
     ethr =  3.67E-05,  avg # of iterations =  6.0

     total cpu time spent up to now is        2.3 secs

     total energy              =   -1186.33168051 Ry
     estimated scf accuracy    <       0.37737390 Ry

     iteration #  5     ecut=    40.42 Ry     beta= 0.70
     Davidson diagonalization with overlap
     ethr =  3.67E-05,  avg # of iterations =  2.0

     total cpu time spent up to now is        2.4 secs

     total energy              =   -1186.34516635 Ry
     estimated scf accuracy    <       0.00322020 Ry

     iteration #  6     ecut=    40.42 Ry     beta= 0.70
     Davidson diagonalization with overlap
     ethr =  3.74E-06,  avg # of iterations =  5.0

     total cpu time spent up to now is        2.4 secs

     total energy              =   -1186.34548412 Ry
     estimated scf accuracy    <       0.00142357 Ry

     iteration #  7     ecut=    40.42 Ry     beta= 0.70
     Davidson diagonalization with overlap
     ethr =  1.66E-06,  avg # of iterations =  2.0

     total cpu time spent up to now is        2.5 secs

     total energy              =   -1186.34548940 Ry
     estimated scf accuracy    <       0.00185225 Ry

     iteration #  8     ecut=    40.42 Ry     beta= 0.70
     Davidson diagonalization with overlap
     ethr =  1.66E-06,  avg # of iterations =  1.0

     total cpu time spent up to now is        2.5 secs

     total energy              =   -1186.34558140 Ry
     estimated scf accuracy    <       0.00018240 Ry

     iteration #  9     ecut=    40.42 Ry     beta= 0.70
     Davidson diagonalization with overlap
     ethr =  2.12E-07,  avg # of iterations =  2.0

     total cpu time spent up to now is        2.5 secs

     total energy              =   -1186.34559027 Ry
     estimated scf accuracy    <       0.00002632 Ry

     iteration # 10     ecut=    40.42 Ry     beta= 0.70
     Davidson diagonalization with overlap
     ethr =  3.06E-08,  avg # of iterations =  5.0

     total cpu time spent up to now is        2.6 secs

     total energy              =   -1186.34559465 Ry
     estimated scf accuracy    <       0.00000155 Ry

     iteration # 11     ecut=    40.42 Ry     beta= 0.70
     Davidson diagonalization with overlap
     ethr =  1.80E-09,  avg # of iterations =  4.0

     total cpu time spent up to now is        2.6 secs

     total energy              =   -1186.34559501 Ry
     estimated scf accuracy    <       0.00000069 Ry

     iteration # 12     ecut=    40.42 Ry     beta= 0.70
     Davidson diagonalization with overlap
     ethr =  7.99E-10,  avg # of iterations =  2.0

     total cpu time spent up to now is        2.7 secs

     End of self-consistent calculation

          k = 0.0000 0.0000 0.0000 (  3355 PWs)   bands (ev):

   -90.2090 -90.2089 -64.9689 -64.9682 -50.3408 -50.3112 -50.2939 -50.2626
   -49.9031 -49.8271 -34.1220 -34.1215 -33.8481 -33.8376 -33.7981 -33.7948
    -1.2004   1.2711   1.6500   2.5212   6.3247   6.5093   8.9836   8.9940
     9.0426   9.1364   9.2142   9.6196   9.9229  10.0236  10.2235  10.7759
    10.8952  11.3735  11.5938  11.6142  11.6549  12.3214  12.4793  13.1188
    13.1762  13.3176  13.3413  13.3534  13.5262  13.9009  14.5538  15.4445
    15.7548  16.6855  16.8707  17.1129

     the Fermi energy is    13.3893 ev

!    total energy              =   -1186.34559493 Ry
     estimated scf accuracy    <       0.00000014 Ry
     smearing contrib. (-TS)   =      -0.03234919 Ry
     internal energy E=F+TS    =   -1186.31324574 Ry

     The total energy is F=E-TS. E is the sum of the following terms:
     one-electron contribution =    -811.31911050 Ry
     hartree contribution      =     448.61436907 Ry
     xc contribution           =    -169.45243624 Ry
     ewald contribution        =    -654.15606806 Ry

     convergence has been achieved in  12 iterations

     Forces acting on atoms (cartesian axes, Ry/au):

     atom    1 type  1   force =     0.00000000    0.00000000    0.00000000
     atom    2 type  2   force =     0.00000000    0.00000000    0.00000000
     atom    3 type  3   force =     0.03895774   -0.02249226   -0.03351298
     atom    4 type  3   force =    -0.03893980    0.02248190    0.03351007
     atom    5 type  1   force =     0.00000000    0.00000000    0.00000000
     atom    6 type  2   force =     0.00000000    0.00000000    0.00000000
     atom    7 type  3   force =     0.03893980   -0.02248190   -0.03351007
     atom    8 type  3   force =    -0.03895774    0.02249226    0.03351298
     The non-local contrib.  to forces
     atom    1 type  1   force =     0.00000000    0.00000000    0.00000000
     atom    2 type  2   force =     0.00000000    0.00000000    0.00000000
     atom    3 type  3   force =    -0.02248983    0.01298451    0.03697529
     atom    4 type  3   force =     0.02250388   -0.01299262   -0.03698155
     atom    5 type  1   force =     0.00000000    0.00000000    0.00000000
     atom    6 type  2   force =     0.00000000    0.00000000    0.00000000
     atom    7 type  3   force =    -0.02250388    0.01299262    0.03698155
     atom    8 type  3   force =     0.02248983   -0.01298451   -0.03697529
     The ionic contribution  to forces
     atom    1 type  1   force =    -0.00000000    0.00000000   -0.00000000
     atom    2 type  2   force =    -0.00000000    0.00000000    0.00000000
     atom    3 type  3   force =    -0.26305695    0.15187600   -0.74628064
     atom    4 type  3   force =     0.26339341   -0.15207026    0.74627857
     atom    5 type  1   force =     0.00000000   -0.00000000    0.00000000
     atom    6 type  2   force =     0.00000000   -0.00000000   -0.00000000
     atom    7 type  3   force =    -0.26339341    0.15207026   -0.74627857
     atom    8 type  3   force =     0.26305695   -0.15187600    0.74628064
     The local contribution  to forces
     atom    1 type  1   force =    -0.00000000    0.00000001   -0.00000000
     atom    2 type  2   force =     0.00000000    0.00000002    0.00000000
     atom    3 type  3   force =     0.31514863   -0.18195115    0.69304437
     atom    4 type  3   force =    -0.31545687    0.18212911   -0.69306549
     atom    5 type  1   force =    -0.00000000    0.00000000   -0.00000000
     atom    6 type  2   force =    -0.00000000    0.00000000   -0.00000000
     atom    7 type  3   force =     0.31545687   -0.18212911    0.69306549
     atom    8 type  3   force =    -0.31514863    0.18195115   -0.69304437
     The core correction contribution to forces
     atom    1 type  1   force =    -0.00000000    0.00000000   -0.00000000
     atom    2 type  2   force =     0.00000000    0.00000000    0.00000000
     atom    3 type  3   force =     0.00935635   -0.00540070   -0.01731192
     atom    4 type  3   force =    -0.00936304    0.00540456    0.01731262
     atom    5 type  1   force =    -0.00000000    0.00000000    0.00000000
     atom    6 type  2   force =     0.00000000    0.00000000   -0.00000000
     atom    7 type  3   force =     0.00936304   -0.00540456   -0.01731262
     atom    8 type  3   force =    -0.00935635    0.00540070    0.01731192
     The Hubbard contrib.    to forces
     atom    1 type  1   force =     0.00000000    0.00000000    0.00000000
     atom    2 type  2   force =     0.00000000    0.00000000    0.00000000
     atom    3 type  3   force =     0.00000000    0.00000000    0.00000000
     atom    4 type  3   force =     0.00000000    0.00000000    0.00000000
     atom    5 type  1   force =     0.00000000    0.00000000    0.00000000
     atom    6 type  2   force =     0.00000000    0.00000000    0.00000000
     atom    7 type  3   force =     0.00000000    0.00000000    0.00000000
     atom    8 type  3   force =     0.00000000    0.00000000    0.00000000
     The SCF correction term to forces
     atom    1 type  1   force =     0.00000000   -0.00000000    0.00000000
     atom    2 type  2   force =    -0.00000000    0.00000000    0.00000000
     atom    3 type  3   force =     0.00000005   -0.00000003    0.00005992
     atom    4 type  3   force =    -0.00001769    0.00001021   -0.00003408
     atom    5 type  1   force =    -0.00000000   -0.00000000    0.00000000
     atom    6 type  2   force =    -0.00000000   -0.00000000   -0.00000000
     atom    7 type  3   force =     0.00001769   -0.00001021    0.00003408
     atom    8 type  3   force =    -0.00000005    0.00000003   -0.00005992

     Total force =     0.112173     Total SCF correction =     0.000102
     Energy error            =      2.0E-02 Ry
     Gradient error          =      3.9E-02 Ry/Bohr

     number of scf cycles    =   3
     number of bfgs steps    =   2

     energy             old  =   -1186.3258521585 Ry
     energy             new  =   -1186.3455949290 Ry

     CASE: energy            _new < energy            _old

     new trust radius        =       0.1273939893 bohr
     new conv_thr            =       0.0000003896 Ry


ATOMIC_POSITIONS (angstrom)
Mn           -1.8229020250        3.1573589245        0.0000000000
Ni           -1.8229020250        3.1573589245        2.5225330000
As           -1.7538162026        5.2223781560        1.1324332902
As           -1.8920265921        7.4070799113        3.9126303220
Mn            0.0000000000        0.0000000000        0.0000000000
Ni            0.0000000000        0.0000000000        2.5225330000
As            0.0691245671        2.0649968623        1.1324356780
As           -0.0690858224        4.2496986175        3.9126327098



     Writing config-only to output data dir ./tutorial.save/
     NEW-OLD atomic charge density approx. for the potential

     Check: negative core charge=   -0.000055

     total cpu time spent up to now is        2.8 secs

     Self-consistent Calculation

     iteration #  1     ecut=    40.42 Ry     beta= 0.70
     Davidson diagonalization with overlap
     ethr =  1.00E-06,  avg # of iterations =  7.0

     total cpu time spent up to now is        2.9 secs

     total energy              =   -1186.36615765 Ry
     estimated scf accuracy    <       0.00600332 Ry

     iteration #  2     ecut=    40.42 Ry     beta= 0.70
     Davidson diagonalization with overlap
     ethr =  6.98E-06,  avg # of iterations =  4.0

     total cpu time spent up to now is        2.9 secs

     total energy              =   -1186.35334643 Ry
     estimated scf accuracy    <       0.21150479 Ry

     iteration #  3     ecut=    40.42 Ry     beta= 0.70
     Davidson diagonalization with overlap
     ethr =  6.98E-06,  avg # of iterations =  5.0

     total cpu time spent up to now is        3.0 secs

     total energy              =   -1186.35762520 Ry
     estimated scf accuracy    <       0.32350157 Ry

     iteration #  4     ecut=    40.42 Ry     beta= 0.70
     Davidson diagonalization with overlap
     ethr =  6.98E-06,  avg # of iterations =  6.0

     total cpu time spent up to now is        3.0 secs

     total energy              =   -1186.36203300 Ry
     estimated scf accuracy    <       0.16305396 Ry

     iteration #  5     ecut=    40.42 Ry     beta= 0.70
     Davidson diagonalization with overlap
     ethr =  6.98E-06,  avg # of iterations =  5.0

     total cpu time spent up to now is        3.1 secs

     total energy              =   -1186.36532198 Ry
     estimated scf accuracy    <       0.06271565 Ry

     iteration #  6     ecut=    40.42 Ry     beta= 0.70
     Davidson diagonalization with overlap
     ethr =  6.98E-06,  avg # of iterations =  2.0

     total cpu time spent up to now is        3.1 secs

     total energy              =   -1186.36778788 Ry
     estimated scf accuracy    <       0.00153278 Ry

     iteration #  7     ecut=    40.42 Ry     beta= 0.70
     Davidson diagonalization with overlap
     ethr =  1.78E-06,  avg # of iterations =  4.0

     total cpu time spent up to now is        3.2 secs

     total energy              =   -1186.36787600 Ry
     estimated scf accuracy    <       0.00339458 Ry

     iteration #  8     ecut=    40.42 Ry     beta= 0.70
     Davidson diagonalization with overlap
     ethr =  1.78E-06,  avg # of iterations =  1.0

     total cpu time spent up to now is        3.2 secs

     total energy              =   -1186.36808363 Ry
     estimated scf accuracy    <       0.00002644 Ry

     iteration #  9     ecut=    40.42 Ry     beta= 0.70
     Davidson diagonalization with overlap
     ethr =  3.07E-08,  avg # of iterations =  5.0

     total cpu time spent up to now is        3.3 secs

     total energy              =   -1186.36809594 Ry
     estimated scf accuracy    <       0.00001152 Ry

     iteration # 10     ecut=    40.42 Ry     beta= 0.70
     Davidson diagonalization with overlap
     ethr =  1.34E-08,  avg # of iterations =  1.0

     total cpu time spent up to now is        3.3 secs

     total energy              =   -1186.36809638 Ry
     estimated scf accuracy    <       0.00000175 Ry

     iteration # 11     ecut=    40.42 Ry     beta= 0.70
     Davidson diagonalization with overlap
     ethr =  2.04E-09,  avg # of iterations =  4.0

     total cpu time spent up to now is        3.3 secs

     End of self-consistent calculation

          k = 0.0000 0.0000 0.0000 (  3355 PWs)   bands (ev):

   -90.0685 -90.0683 -65.0491 -65.0484 -50.2062 -50.1834 -50.1749 -50.1536
   -49.7253 -49.6493 -34.1771 -34.1766 -33.9421 -33.9301 -33.9079 -33.9046
    -1.2719   1.3461   1.4519   2.5529   6.3162   6.6426   8.8752   8.9088
     8.9635   8.9696   9.1829   9.9158   9.9629  10.0671  10.2046  10.8942
    10.9990  11.5647  11.5735  11.6378  11.7800  12.3726  12.3816  13.0271
    13.1358  13.2233  13.2286  13.2442  13.6724  13.9222  14.5730  15.2206
    15.7429  16.8475  16.9678  17.3267

     the Fermi energy is    13.3100 ev

!    total energy              =   -1186.36809652 Ry
     estimated scf accuracy    <       0.00000011 Ry
     smearing contrib. (-TS)   =      -0.02666295 Ry
     internal energy E=F+TS    =   -1186.34143356 Ry

     The total energy is F=E-TS. E is the sum of the following terms:
     one-electron contribution =    -811.32224541 Ry
     hartree contribution      =     448.68121277 Ry
     xc contribution           =    -169.49884699 Ry
     ewald contribution        =    -654.20155395 Ry

     convergence has been achieved in  11 iterations

     Forces acting on atoms (cartesian axes, Ry/au):

     atom    1 type  1   force =     0.00000000    0.00000000    0.00000000
     atom    2 type  2   force =     0.00000000    0.00000000    0.00000000
     atom    3 type  3   force =     0.03754029   -0.02167390   -0.00075853
     atom    4 type  3   force =    -0.03748105    0.02163969    0.00075821
     atom    5 type  1   force =     0.00000000    0.00000000    0.00000000
     atom    6 type  2   force =     0.00000000    0.00000000    0.00000000
     atom    7 type  3   force =     0.03748105   -0.02163969   -0.00075821
     atom    8 type  3   force =    -0.03754029    0.02167390    0.00075853
     The non-local contrib.  to forces
     atom    1 type  1   force =     0.00000000    0.00000000    0.00000000
     atom    2 type  2   force =     0.00000000    0.00000000    0.00000000
     atom    3 type  3   force =    -0.03322567    0.01918285    0.03446315
     atom    4 type  3   force =     0.03324791   -0.01919569   -0.03443377
     atom    5 type  1   force =     0.00000000    0.00000000    0.00000000
     atom    6 type  2   force =     0.00000000    0.00000000    0.00000000
     atom    7 type  3   force =    -0.03324791    0.01919569    0.03443377
     atom    8 type  3   force =     0.03322567   -0.01918285   -0.03446315
     The ionic contribution  to forces
     atom    1 type  1   force =    -0.00000000    0.00000000   -0.00000000
     atom    2 type  2   force =    -0.00000000    0.00000000    0.00000000
     atom    3 type  3   force =    -0.55881904    0.32263433   -0.29003485
     atom    4 type  3   force =     0.55926642   -0.32289262    0.29002065
     atom    5 type  1   force =     0.00000000   -0.00000000    0.00000000
     atom    6 type  2   force =     0.00000000   -0.00000000   -0.00000000
     atom    7 type  3   force =    -0.55926642    0.32289262   -0.29002065
     atom    8 type  3   force =     0.55881904   -0.32263433    0.29003485
     The local contribution  to forces
     atom    1 type  1   force =    -0.00000000    0.00000001   -0.00000000
     atom    2 type  2   force =     0.00000000    0.00000002    0.00000000
     atom    3 type  3   force =     0.61471114   -0.35490364    0.27459416
     atom    4 type  3   force =    -0.61475693    0.35493008   -0.27459195
     atom    5 type  1   force =    -0.00000000    0.00000000    0.00000000
     atom    6 type  2   force =     0.00000000    0.00000000   -0.00000000
     atom    7 type  3   force =     0.61475693   -0.35493008    0.27459195
     atom    8 type  3   force =    -0.61471114    0.35490364   -0.27459416
     The core correction contribution to forces
     atom    1 type  1   force =    -0.00000000    0.00000000   -0.00000000
     atom    2 type  2   force =     0.00000000    0.00000000    0.00000000
     atom    3 type  3   force =     0.01504051   -0.00868182   -0.01989134
     atom    4 type  3   force =    -0.01503746    0.00868006    0.01988652
     atom    5 type  1   force =    -0.00000000    0.00000000    0.00000000
     atom    6 type  2   force =     0.00000000    0.00000000   -0.00000000
     atom    7 type  3   force =     0.01503746   -0.00868006   -0.01988652
     atom    8 type  3   force =    -0.01504051    0.00868182    0.01989134
     The Hubbard contrib.    to forces
     atom    1 type  1   force =     0.00000000    0.00000000    0.00000000
     atom    2 type  2   force =     0.00000000    0.00000000    0.00000000
     atom    3 type  3   force =     0.00000000    0.00000000    0.00000000
     atom    4 type  3   force =     0.00000000    0.00000000    0.00000000
     atom    5 type  1   force =     0.00000000    0.00000000    0.00000000
     atom    6 type  2   force =     0.00000000    0.00000000    0.00000000
     atom    7 type  3   force =     0.00000000    0.00000000    0.00000000
     atom    8 type  3   force =     0.00000000    0.00000000    0.00000000
     The SCF correction term to forces
     atom    1 type  1   force =     0.00000000    0.00000000   -0.00000000
     atom    2 type  2   force =     0.00000000   -0.00000000    0.00000000
     atom    3 type  3   force =    -0.00016586    0.00009576    0.00011035
     atom    4 type  3   force =    -0.00020178    0.00011650   -0.00012323
     atom    5 type  1   force =    -0.00000000   -0.00000000    0.00000000
     atom    6 type  2   force =     0.00000000    0.00000000   -0.00000000
     atom    7 type  3   force =     0.00020178   -0.00011650    0.00012323
     atom    8 type  3   force =     0.00016586   -0.00009576   -0.00011035

     Total force =     0.086640     Total SCF correction =     0.000486
     Energy error            =      2.3E-02 Ry
     Gradient error          =      3.8E-02 Ry/Bohr

     number of scf cycles    =   4
     number of bfgs steps    =   3

     energy             old  =   -1186.3455949290 Ry
     energy             new  =   -1186.3680965191 Ry

     CASE: energy            _new < energy            _old

     new trust radius        =       0.1683270441 bohr
     new conv_thr            =       0.0000003754 Ry


ATOMIC_POSITIONS (angstrom)
Mn           -1.8229020250        3.1573589245        0.0000000000
Ni           -1.8229020250        3.1573589245        2.5225330000
As           -1.6932008725        5.1873818789        1.0773391100
As           -1.9526258130        7.4420668878        3.9677266150
Mn            0.0000000000        0.0000000000        0.0000000000
Ni            0.0000000000        0.0000000000        2.5225330000
As            0.1297237880        2.0300098858        1.0773393850
As           -0.1297011525        4.2846948946        3.9677268900



     Writing config-only to output data dir ./tutorial.save/
     NEW-OLD atomic charge density approx. for the potential

     Check: negative core charge=   -0.000055

     total cpu time spent up to now is        3.4 secs

     Self-consistent Calculation

     iteration #  1     ecut=    40.42 Ry     beta= 0.70
     Davidson diagonalization with overlap
     ethr =  1.00E-06,  avg # of iterations =  8.0

     total cpu time spent up to now is        3.5 secs

     total energy              =   -1186.34764420 Ry
     estimated scf accuracy    <       0.03558997 Ry

     iteration #  2     ecut=    40.42 Ry     beta= 0.70
     Davidson diagonalization with overlap
     ethr =  4.14E-05,  avg # of iterations =  6.0

     total cpu time spent up to now is        3.6 secs

     total energy              =   -1186.22180108 Ry
     estimated scf accuracy    <       3.14467612 Ry

     iteration #  3     ecut=    40.42 Ry     beta= 0.70
     Davidson diagonalization with overlap
     ethr =  4.14E-05,  avg # of iterations =  6.0

     total cpu time spent up to now is        3.7 secs

     total energy              =   -1186.36177922 Ry
     estimated scf accuracy    <       0.09615128 Ry

     iteration #  4     ecut=    40.42 Ry     beta= 0.70
     Davidson diagonalization with overlap
     ethr =  4.14E-05,  avg # of iterations =  2.0

     total cpu time spent up to now is        3.7 secs

     total energy              =   -1186.36838918 Ry
     estimated scf accuracy    <       0.04562919 Ry

     iteration #  5     ecut=    40.42 Ry     beta= 0.70
     Davidson diagonalization with overlap
     ethr =  4.14E-05,  avg # of iterations =  1.0

     total cpu time spent up to now is        3.7 secs

     total energy              =   -1186.36525671 Ry
     estimated scf accuracy    <       0.35030891 Ry

     iteration #  6     ecut=    40.42 Ry     beta= 0.70
     Davidson diagonalization with overlap
     ethr =  4.14E-05,  avg # of iterations =  1.0

     total cpu time spent up to now is        3.8 secs

     total energy              =   -1186.37228477 Ry
     estimated scf accuracy    <       0.00048125 Ry

     iteration #  7     ecut=    40.42 Ry     beta= 0.70
     Davidson diagonalization with overlap
     ethr =  5.60E-07,  avg # of iterations =  5.0

     total cpu time spent up to now is        3.8 secs

     total energy              =   -1186.37203941 Ry
     estimated scf accuracy    <       0.00705881 Ry

     iteration #  8     ecut=    40.42 Ry     beta= 0.70
     Davidson diagonalization with overlap
     ethr =  5.60E-07,  avg # of iterations =  4.0

     total cpu time spent up to now is        3.9 secs

     total energy              =   -1186.37248395 Ry
     estimated scf accuracy    <       0.00014639 Ry

     iteration #  9     ecut=    40.42 Ry     beta= 0.70
     Davidson diagonalization with overlap
     ethr =  1.70E-07,  avg # of iterations =  2.0

     total cpu time spent up to now is        3.9 secs

     total energy              =   -1186.37249721 Ry
     estimated scf accuracy    <       0.00000998 Ry

     iteration # 10     ecut=    40.42 Ry     beta= 0.70
     Davidson diagonalization with overlap
     ethr =  1.16E-08,  avg # of iterations =  4.0

     total cpu time spent up to now is        4.0 secs

     total energy              =   -1186.37249954 Ry
     estimated scf accuracy    <       0.00000134 Ry

     iteration # 11     ecut=    40.42 Ry     beta= 0.70
     Davidson diagonalization with overlap
     ethr =  1.56E-09,  avg # of iterations =  4.0

     total cpu time spent up to now is        4.0 secs

     total energy              =   -1186.37249977 Ry
     estimated scf accuracy    <       0.00000057 Ry

     iteration # 12     ecut=    40.42 Ry     beta= 0.70
     Davidson diagonalization with overlap
     ethr =  6.63E-10,  avg # of iterations =  2.0

     total cpu time spent up to now is        4.1 secs

     total energy              =   -1186.37249981 Ry
     estimated scf accuracy    <       0.00000115 Ry

     iteration # 13     ecut=    40.42 Ry     beta= 0.70
     Davidson diagonalization with overlap
     ethr =  6.63E-10,  avg # of iterations =  1.0

     total cpu time spent up to now is        4.1 secs

     End of self-consistent calculation

          k = 0.0000 0.0000 0.0000 (  3355 PWs)   bands (ev):

   -90.0512 -90.0512 -65.3219 -65.3212 -50.2558 -50.2245 -50.1365 -50.1066
   -49.6573 -49.5813 -34.4319 -34.4301 -34.2262 -34.2129 -34.1957 -34.1923
    -1.4152   1.0770   1.5116   2.6470   6.2781   6.8738   8.5076   8.6506
     8.7908   8.8710   9.0050   9.9382  10.0086  10.1329  10.3996  10.9006
    10.9628  11.5318  11.5820  11.6642  11.8801  12.1426  12.3522  12.7886
    12.9505  12.9647  13.0077  13.0190  13.8342  13.8515  14.4526  15.1023
    15.5943  16.6963  17.3364  17.5452

     the Fermi energy is    13.0849 ev

!    total energy              =   -1186.37249985 Ry
     estimated scf accuracy    <       0.00000003 Ry
     smearing contrib. (-TS)   =      -0.02656962 Ry
     internal energy E=F+TS    =   -1186.34593023 Ry

     The total energy is F=E-TS. E is the sum of the following terms:
     one-electron contribution =    -811.62733793 Ry
     hartree contribution      =     448.56902026 Ry
     xc contribution           =    -169.54558789 Ry
     ewald contribution        =    -653.74202468 Ry

     convergence has been achieved in  13 iterations

     Forces acting on atoms (cartesian axes, Ry/au):

     atom    1 type  1   force =     0.00000000    0.00000000    0.00000000
     atom    2 type  2   force =     0.00000000    0.00000000    0.00000000
     atom    3 type  3   force =     0.00665613   -0.00384292    0.04720503
     atom    4 type  3   force =    -0.00666343    0.00384713   -0.04720459
     atom    5 type  1   force =     0.00000000    0.00000000    0.00000000
     atom    6 type  2   force =     0.00000000    0.00000000    0.00000000
     atom    7 type  3   force =     0.00666343   -0.00384713    0.04720459
     atom    8 type  3   force =    -0.00665613    0.00384292   -0.04720503
     The non-local contrib.  to forces
     atom    1 type  1   force =     0.00000000    0.00000000    0.00000000
     atom    2 type  2   force =     0.00000000    0.00000000    0.00000000
     atom    3 type  3   force =    -0.05219809    0.03013658    0.03502055
     atom    4 type  3   force =     0.05218426   -0.03012860   -0.03501647
     atom    5 type  1   force =     0.00000000    0.00000000    0.00000000
     atom    6 type  2   force =     0.00000000    0.00000000    0.00000000
     atom    7 type  3   force =    -0.05218426    0.03012860    0.03501647
     atom    8 type  3   force =     0.05219809   -0.03013658   -0.03502055
     The ionic contribution  to forces
     atom    1 type  1   force =    -0.00000000    0.00000000   -0.00000000
     atom    2 type  2   force =    -0.00000000    0.00000000    0.00000000
     atom    3 type  3   force =    -0.99481658    0.57435762    0.20896137
     atom    4 type  3   force =     0.99504779   -0.57449111   -0.20898745
     atom    5 type  1   force =     0.00000000   -0.00000000    0.00000000
     atom    6 type  2   force =     0.00000000   -0.00000000   -0.00000000
     atom    7 type  3   force =    -0.99504779    0.57449111    0.20898745
     atom    8 type  3   force =     0.99481658   -0.57435762   -0.20896137
     The local contribution  to forces
     atom    1 type  1   force =    -0.00000000    0.00000001   -0.00000000
     atom    2 type  2   force =     0.00000000    0.00000002    0.00000000
     atom    3 type  3   force =     1.03162769   -0.59561052   -0.17312082
     atom    4 type  3   force =    -1.03195758    0.59580099    0.17314484
     atom    5 type  1   force =    -0.00000000    0.00000000   -0.00000000
     atom    6 type  2   force =    -0.00000000    0.00000000   -0.00000000
     atom    7 type  3   force =     1.03195758   -0.59580099   -0.17314484
     atom    8 type  3   force =    -1.03162769    0.59561052    0.17312082
     The core correction contribution to forces
     atom    1 type  1   force =    -0.00000000    0.00000000   -0.00000000
     atom    2 type  2   force =     0.00000000    0.00000000   -0.00000000
     atom    3 type  3   force =     0.02199884   -0.01270311   -0.02362484
     atom    4 type  3   force =    -0.02200025    0.01270393    0.02362431
     atom    5 type  1   force =    -0.00000000    0.00000000    0.00000000
     atom    6 type  2   force =     0.00000000    0.00000000   -0.00000000
     atom    7 type  3   force =     0.02200025   -0.01270393   -0.02362431
     atom    8 type  3   force =    -0.02199884    0.01270311    0.02362484
     The Hubbard contrib.    to forces
     atom    1 type  1   force =     0.00000000    0.00000000    0.00000000
     atom    2 type  2   force =     0.00000000    0.00000000    0.00000000
     atom    3 type  3   force =     0.00000000    0.00000000    0.00000000
     atom    4 type  3   force =     0.00000000    0.00000000    0.00000000
     atom    5 type  1   force =     0.00000000    0.00000000    0.00000000
     atom    6 type  2   force =     0.00000000    0.00000000    0.00000000
     atom    7 type  3   force =     0.00000000    0.00000000    0.00000000
     atom    8 type  3   force =     0.00000000    0.00000000    0.00000000
     The SCF correction term to forces
     atom    1 type  1   force =     0.00000000    0.00000000   -0.00000000
     atom    2 type  2   force =    -0.00000000    0.00000000    0.00000000
     atom    3 type  3   force =     0.00004338   -0.00002504   -0.00003123
     atom    4 type  3   force =     0.00006325   -0.00003652    0.00003019
     atom    5 type  1   force =    -0.00000000   -0.00000000    0.00000000
     atom    6 type  2   force =     0.00000000    0.00000000   -0.00000000
     atom    7 type  3   force =    -0.00006325    0.00003652   -0.00003019
     atom    8 type  3   force =    -0.00004338    0.00002504    0.00003123

     Total force =     0.095654     Total SCF correction =     0.000139
     Energy error            =      4.4E-03 Ry
     Gradient error          =      4.7E-02 Ry/Bohr

     number of scf cycles    =   5
     number of bfgs steps    =   4

     energy             old  =   -1186.3680965191 Ry
     energy             new  =   -1186.3724998507 Ry

     CASE: energy            _new < energy            _old

     new trust radius        =       0.0654679375 bohr
     new conv_thr            =       0.0000004403 Ry


ATOMIC_POSITIONS (angstrom)
Mn           -1.8229020250        3.1573589245        0.0000000000
Ni           -1.8229020250        3.1573589245        2.5225330000
As           -1.7090500067        5.1965323808        1.1067549175
As           -1.9367878093        7.4329228121        3.9383111545
Mn            0.0000000000        0.0000000000        0.0000000000
Ni            0.0000000000        0.0000000000        2.5225330000
As            0.1138857843        2.0391539615        1.1067548455
As           -0.1138520183        4.2755443927        3.9383110825



     Writing config-only to output data dir ./tutorial.save/
     NEW-OLD atomic charge density approx. for the potential

     Check: negative core charge=   -0.000055

     total cpu time spent up to now is        4.2 secs

     Self-consistent Calculation

     iteration #  1     ecut=    40.42 Ry     beta= 0.70
     Davidson diagonalization with overlap
     ethr =  1.00E-06,  avg # of iterations =  5.0

     total cpu time spent up to now is        4.3 secs

     total energy              =   -1186.37821696 Ry
     estimated scf accuracy    <       0.00090641 Ry

     iteration #  2     ecut=    40.42 Ry     beta= 0.70
     Davidson diagonalization with overlap
     ethr =  1.05E-06,  avg # of iterations =  5.0

     total cpu time spent up to now is        4.3 secs

     total energy              =   -1186.37594749 Ry
     estimated scf accuracy    <       0.04999525 Ry

     iteration #  3     ecut=    40.42 Ry     beta= 0.70
     Davidson diagonalization with overlap
     ethr =  1.05E-06,  avg # of iterations =  6.0

     total cpu time spent up to now is        4.4 secs

     total energy              =   -1186.37691457 Ry
     estimated scf accuracy    <       0.04582770 Ry

     iteration #  4     ecut=    40.42 Ry     beta= 0.70
     Davidson diagonalization with overlap
     ethr =  1.05E-06,  avg # of iterations =  6.0

     total cpu time spent up to now is        4.4 secs

     total energy              =   -1186.37782761 Ry
     estimated scf accuracy    <       0.02043663 Ry

     iteration #  5     ecut=    40.42 Ry     beta= 0.70
     Davidson diagonalization with overlap
     ethr =  1.05E-06,  avg # of iterations =  4.0

     total cpu time spent up to now is        4.5 secs

     total energy              =   -1186.37833737 Ry
     estimated scf accuracy    <       0.00165299 Ry

     iteration #  6     ecut=    40.42 Ry     beta= 0.70
     Davidson diagonalization with overlap
     ethr =  1.05E-06,  avg # of iterations =  2.0

     total cpu time spent up to now is        4.5 secs

     total energy              =   -1186.37849537 Ry
     estimated scf accuracy    <       0.00019298 Ry

     iteration #  7     ecut=    40.42 Ry     beta= 0.70
     Davidson diagonalization with overlap
     ethr =  2.24E-07,  avg # of iterations =  2.0

     total cpu time spent up to now is        4.6 secs

     total energy              =   -1186.37848271 Ry
     estimated scf accuracy    <       0.00063323 Ry

     iteration #  8     ecut=    40.42 Ry     beta= 0.70
     Davidson diagonalization with overlap
     ethr =  2.24E-07,  avg # of iterations =  2.0

     total cpu time spent up to now is        4.6 secs

     total energy              =   -1186.37852235 Ry
     estimated scf accuracy    <       0.00000156 Ry

     iteration #  9     ecut=    40.42 Ry     beta= 0.70
     Davidson diagonalization with overlap
     ethr =  1.82E-09,  avg # of iterations =  5.0

     total cpu time spent up to now is        4.7 secs

     total energy              =   -1186.37852351 Ry
     estimated scf accuracy    <       0.00000104 Ry

     iteration # 10     ecut=    40.42 Ry     beta= 0.70
     Davidson diagonalization with overlap
     ethr =  1.21E-09,  avg # of iterations =  1.0

     total cpu time spent up to now is        4.7 secs

     End of self-consistent calculation

          k = 0.0000 0.0000 0.0000 (  3355 PWs)   bands (ev):

   -90.0846 -90.0839 -65.2422 -65.2415 -50.2617 -50.2304 -50.1889 -50.1590
   -49.7024 -49.6264 -34.3583 -34.3569 -34.1460 -34.1333 -34.1009 -34.0976
    -1.3316   1.2165   1.4877   2.6072   6.2868   6.8244   8.6201   8.7366
     8.8582   8.9364   9.0471   9.9092  10.0055  10.1808  10.2181  10.8918
    10.9635  11.5235  11.5842  11.6017  11.8337  12.2170  12.3469  12.8605
    13.0140  13.0299  13.0881  13.0954  13.8357  13.8460  14.4719  15.1782
    15.6145  16.7153  17.1392  17.4652

     the Fermi energy is    13.1573 ev

!    total energy              =   -1186.37852343 Ry
     estimated scf accuracy    <       0.00000014 Ry
     smearing contrib. (-TS)   =      -0.02629587 Ry
     internal energy E=F+TS    =   -1186.35222756 Ry

     The total energy is F=E-TS. E is the sum of the following terms:
     one-electron contribution =    -811.47108319 Ry
     hartree contribution      =     448.54562325 Ry
     xc contribution           =    -169.51776287 Ry
     ewald contribution        =    -653.90900474 Ry

     convergence has been achieved in  10 iterations

     Forces acting on atoms (cartesian axes, Ry/au):

     atom    1 type  1   force =     0.00000000    0.00000000    0.00000000
     atom    2 type  2   force =     0.00000000    0.00000000    0.00000000
     atom    3 type  3   force =     0.01843952   -0.01064606    0.02529426
     atom    4 type  3   force =    -0.01843186    0.01064164   -0.02531174
     atom    5 type  1   force =     0.00000000    0.00000000    0.00000000
     atom    6 type  2   force =     0.00000000    0.00000000    0.00000000
     atom    7 type  3   force =     0.01843186   -0.01064164    0.02531174
     atom    8 type  3   force =    -0.01843952    0.01064606   -0.02529426
     The non-local contrib.  to forces
     atom    1 type  1   force =     0.00000000    0.00000000    0.00000000
     atom    2 type  2   force =     0.00000000    0.00000000    0.00000000
     atom    3 type  3   force =    -0.04619517    0.02667080    0.03502691
     atom    4 type  3   force =     0.04618380   -0.02666423   -0.03504957
     atom    5 type  1   force =     0.00000000    0.00000000    0.00000000
     atom    6 type  2   force =     0.00000000    0.00000000    0.00000000
     atom    7 type  3   force =    -0.04618380    0.02666423    0.03504957
     atom    8 type  3   force =     0.04619517   -0.02667080   -0.03502691
     The ionic contribution  to forces
     atom    1 type  1   force =    -0.00000000    0.00000000   -0.00000000
     atom    2 type  2   force =    -0.00000000    0.00000000    0.00000000
     atom    3 type  3   force =    -0.88144937    0.50890503   -0.05470161
     atom    4 type  3   force =     0.88180560   -0.50911070    0.05466892
     atom    5 type  1   force =     0.00000000   -0.00000000    0.00000000
     atom    6 type  2   force =     0.00000000   -0.00000000   -0.00000000
     atom    7 type  3   force =    -0.88180560    0.50911070   -0.05466892
     atom    8 type  3   force =     0.88144937   -0.50890503    0.05470161
     The local contribution  to forces
     atom    1 type  1   force =    -0.00000000    0.00000001   -0.00000000
     atom    2 type  2   force =     0.00000000    0.00000002    0.00000000
     atom    3 type  3   force =     0.92603579   -0.53464701    0.06665500
     atom    4 type  3   force =    -0.92651596    0.53492424   -0.06673319
     atom    5 type  1   force =    -0.00000000    0.00000000   -0.00000000
     atom    6 type  2   force =    -0.00000000    0.00000000   -0.00000000
     atom    7 type  3   force =     0.92651596   -0.53492424    0.06673319
     atom    8 type  3   force =    -0.92603579    0.53464701   -0.06665500
     The core correction contribution to forces
     atom    1 type  1   force =    -0.00000000    0.00000000   -0.00000000
     atom    2 type  2   force =     0.00000000    0.00000000   -0.00000000
     atom    3 type  3   force =     0.01997273   -0.01153221   -0.02178291
     atom    4 type  3   force =    -0.01997683    0.01153459    0.02178469
     atom    5 type  1   force =    -0.00000000    0.00000000    0.00000000
     atom    6 type  2   force =     0.00000000    0.00000000   -0.00000000
     atom    7 type  3   force =     0.01997683   -0.01153459   -0.02178469
     atom    8 type  3   force =    -0.01997273    0.01153221    0.02178291
     The Hubbard contrib.    to forces
     atom    1 type  1   force =     0.00000000    0.00000000    0.00000000
     atom    2 type  2   force =     0.00000000    0.00000000    0.00000000
     atom    3 type  3   force =     0.00000000    0.00000000    0.00000000
     atom    4 type  3   force =     0.00000000    0.00000000    0.00000000
     atom    5 type  1   force =     0.00000000    0.00000000    0.00000000
     atom    6 type  2   force =     0.00000000    0.00000000    0.00000000
     atom    7 type  3   force =     0.00000000    0.00000000    0.00000000
     atom    8 type  3   force =     0.00000000    0.00000000    0.00000000
     The SCF correction term to forces
     atom    1 type  1   force =    -0.00000000   -0.00000000    0.00000000
     atom    2 type  2   force =    -0.00000000    0.00000000    0.00000000
     atom    3 type  3   force =     0.00007514   -0.00004338    0.00009687
     atom    4 type  3   force =     0.00007194   -0.00004154    0.00001741
     atom    5 type  1   force =     0.00000000    0.00000000   -0.00000000
     atom    6 type  2   force =    -0.00000000   -0.00000000    0.00000000
     atom    7 type  3   force =    -0.00007194    0.00004154   -0.00001741
     atom    8 type  3   force =    -0.00007514    0.00004338   -0.00009687

     Total force =     0.066133     Total SCF correction =     0.000220
     Energy error            =      6.0E-03 Ry
     Gradient error          =      2.5E-02 Ry/Bohr

     number of scf cycles    =   6
     number of bfgs steps    =   5

     energy             old  =   -1186.3724998507 Ry
     energy             new  =   -1186.3785234334 Ry

     CASE: energy            _new < energy            _old

     new trust radius        =       0.0409691462 bohr
     new conv_thr            =       0.0000002531 Ry


ATOMIC_POSITIONS (angstrom)
Mn           -1.8229020250        3.1573589245        0.0000000000
Ni           -1.8229020250        3.1573589245        2.5225330000
As           -1.7030321409        5.1930579643        1.1272723521
As           -1.9428247808        7.4364082592        3.9177824826
Mn            0.0000000000        0.0000000000        0.0000000000
Ni            0.0000000000        0.0000000000        2.5225330000
As            0.1199227558        2.0356685144        1.1272835174
As           -0.1198698841        4.2790188092        3.9177936479



     Writing config-only to output data dir ./tutorial.save/
     NEW-OLD atomic charge density approx. for the potential

     Check: negative core charge=   -0.000055

     total cpu time spent up to now is        4.8 secs

     Self-consistent Calculation

     iteration #  1     ecut=    40.42 Ry     beta= 0.70
     Davidson diagonalization with overlap
     ethr =  1.00E-06,  avg # of iterations =  5.0

     total cpu time spent up to now is        4.8 secs

     total energy              =   -1186.37682733 Ry
     estimated scf accuracy    <       0.00816469 Ry

     iteration #  2     ecut=    40.42 Ry     beta= 0.70
     Davidson diagonalization with overlap
     ethr =  9.49E-06,  avg # of iterations =  5.0

     total cpu time spent up to now is        4.9 secs

     total energy              =   -1186.32896727 Ry
     estimated scf accuracy    <       1.28708427 Ry

     iteration #  3     ecut=    40.42 Ry     beta= 0.70
     Davidson diagonalization with overlap
     ethr =  9.49E-06,  avg # of iterations =  6.0

     total cpu time spent up to now is        5.0 secs

     total energy              =   -1186.38110827 Ry
     estimated scf accuracy    <       0.02356637 Ry

     iteration #  4     ecut=    40.42 Ry     beta= 0.70
     Davidson diagonalization with overlap
     ethr =  9.49E-06,  avg # of iterations =  2.0

     total cpu time spent up to now is        5.0 secs

     total energy              =   -1186.38162505 Ry
     estimated scf accuracy    <       0.04981136 Ry

     iteration #  5     ecut=    40.42 Ry     beta= 0.70
     Davidson diagonalization with overlap
     ethr =  9.49E-06,  avg # of iterations =  1.0

     total cpu time spent up to now is        5.0 secs

     total energy              =   -1186.38273609 Ry
     estimated scf accuracy    <       0.00242096 Ry

     iteration #  6     ecut=    40.42 Ry     beta= 0.70
     Davidson diagonalization with overlap
     ethr =  2.82E-06,  avg # of iterations =  2.0

     total cpu time spent up to now is        5.1 secs

     total energy              =   -1186.38283289 Ry
     estimated scf accuracy    <       0.00004436 Ry

     iteration #  7     ecut=    40.42 Ry     beta= 0.70
     Davidson diagonalization with overlap
     ethr =  5.16E-08,  avg # of iterations =  5.0

     total cpu time spent up to now is        5.1 secs

     total energy              =   -1186.38283639 Ry
     estimated scf accuracy    <       0.00011401 Ry

     iteration #  8     ecut=    40.42 Ry     beta= 0.70
     Davidson diagonalization with overlap
     ethr =  5.16E-08,  avg # of iterations =  2.0

     total cpu time spent up to now is        5.2 secs

     total energy              =   -1186.38284554 Ry
     estimated scf accuracy    <       0.00002011 Ry

     iteration #  9     ecut=    40.42 Ry     beta= 0.70
     Davidson diagonalization with overlap
     ethr =  2.34E-08,  avg # of iterations =  1.0

     total cpu time spent up to now is        5.2 secs

     total energy              =   -1186.38284676 Ry
     estimated scf accuracy    <       0.00000220 Ry

     iteration # 10     ecut=    40.42 Ry     beta= 0.70
     Davidson diagonalization with overlap
     ethr =  2.56E-09,  avg # of iterations =  5.0

     total cpu time spent up to now is        5.3 secs

     End of self-consistent calculation

          k = 0.0000 0.0000 0.0000 (  3355 PWs)   bands (ev):

   -90.1456 -90.1453 -65.2575 -65.2568 -50.3116 -50.2803 -50.2634 -50.2335
   -49.7602 -49.6842 -34.3800 -34.3788 -34.1631 -34.1509 -34.0973 -34.0941
    -1.2888   1.2278   1.5351   2.5978   6.2763   6.8521   8.5994   8.7545
     8.8627   8.9720   9.0134   9.8502   9.9638  10.1876  10.2102  10.8590
    10.9272  11.5020  11.5332  11.5689  11.7901  12.2139  12.3195  12.8521
    13.0017  13.0101  13.0949  13.1109  13.8139  13.8582  14.4334  15.2903
    15.5636  16.6580  17.0138  17.4453

     the Fermi energy is    13.1574 ev

!    total energy              =   -1186.38284704 Ry
     estimated scf accuracy    <       0.00000015 Ry
     smearing contrib. (-TS)   =      -0.02552979 Ry
     internal energy E=F+TS    =   -1186.35731725 Ry

     The total energy is F=E-TS. E is the sum of the following terms:
     one-electron contribution =    -811.52274979 Ry
     hartree contribution      =     448.49717289 Ry
     xc contribution           =    -169.49976286 Ry
     ewald contribution        =    -653.83197749 Ry

     convergence has been achieved in  10 iterations

     Forces acting on atoms (cartesian axes, Ry/au):

     atom    1 type  1   force =     0.00000000    0.00000000    0.00000000
     atom    2 type  2   force =     0.00000000    0.00000000    0.00000000
     atom    3 type  3   force =     0.02053801   -0.01185762    0.01518929
     atom    4 type  3   force =    -0.02053259    0.01185450   -0.01518714
     atom    5 type  1   force =     0.00000000    0.00000000    0.00000000
     atom    6 type  2   force =     0.00000000    0.00000000    0.00000000
     atom    7 type  3   force =     0.02053259   -0.01185450    0.01518714
     atom    8 type  3   force =    -0.02053801    0.01185762   -0.01518929
     The non-local contrib.  to forces
     atom    1 type  1   force =     0.00000000    0.00000000    0.00000000
     atom    2 type  2   force =     0.00000000    0.00000000    0.00000000
     atom    3 type  3   force =    -0.04626835    0.02671305    0.03590986
     atom    4 type  3   force =     0.04626216   -0.02670947   -0.03591926
     atom    5 type  1   force =     0.00000000    0.00000000    0.00000000
     atom    6 type  2   force =     0.00000000    0.00000000    0.00000000
     atom    7 type  3   force =    -0.04626216    0.02670947    0.03591926
     atom    8 type  3   force =     0.04626835   -0.02671305   -0.03590986
     The ionic contribution  to forces
     atom    1 type  1   force =    -0.00000000    0.00000000   -0.00000000
     atom    2 type  2   force =    -0.00000000    0.00000000    0.00000000
     atom    3 type  3   force =    -0.91695671    0.52940521   -0.23428433
     atom    4 type  3   force =     0.91749780   -0.52971760    0.23430184
     atom    5 type  1   force =     0.00000000   -0.00000000    0.00000000
     atom    6 type  2   force =     0.00000000   -0.00000000   -0.00000000
     atom    7 type  3   force =    -0.91749780    0.52971760   -0.23430184
     atom    8 type  3   force =     0.91695671   -0.52940521    0.23428433
     The local contribution  to forces
     atom    1 type  1   force =    -0.00000000    0.00000001   -0.00000000
     atom    2 type  2   force =     0.00000000    0.00000002    0.00000000
     atom    3 type  3   force =     0.96341852   -0.55622994    0.23462638
     atom    4 type  3   force =    -0.96406641    0.55660400   -0.23465877
     atom    5 type  1   force =    -0.00000000    0.00000000   -0.00000000
     atom    6 type  2   force =     0.00000000    0.00000000   -0.00000000
     atom    7 type  3   force =     0.96406641   -0.55660400    0.23465877
     atom    8 type  3   force =    -0.96341852    0.55622994   -0.23462638
     The core correction contribution to forces
     atom    1 type  1   force =    -0.00000000    0.00000000   -0.00000000
     atom    2 type  2   force =     0.00000000    0.00000000   -0.00000000
     atom    3 type  3   force =     0.02027386   -0.01170644   -0.02084794
[...]
     estimated scf accuracy    <       0.00014002 Ry

     iteration #  7     ecut=    40.42 Ry     beta= 0.70
     Davidson diagonalization with overlap
     ethr =  6.39E-08,  avg # of iterations =  2.0

     total cpu time spent up to now is        7.6 secs

     total energy              =   -1186.39486852 Ry
     estimated scf accuracy    <       0.00000027 Ry

     iteration #  8     ecut=    40.42 Ry     beta= 0.70
     Davidson diagonalization with overlap
     ethr =  3.12E-10,  avg # of iterations =  5.0

     total cpu time spent up to now is        7.7 secs

     total energy              =   -1186.39486872 Ry
     estimated scf accuracy    <       0.00000013 Ry

     iteration #  9     ecut=    40.42 Ry     beta= 0.70
     Davidson diagonalization with overlap
     ethr =  1.56E-10,  avg # of iterations =  1.0

     total cpu time spent up to now is        7.7 secs

     End of self-consistent calculation

          k = 0.0000 0.0000 0.0000 (  3355 PWs)   bands (ev):

   -90.3468 -90.3462 -65.4098 -65.4092 -50.5201 -50.5096 -50.4900 -50.4784
   -49.9015 -49.8257 -34.5496 -34.5481 -34.3238 -34.3126 -34.1957 -34.1928
    -1.2520   0.9746   1.8433   2.6075   6.1770   7.1501   8.1863   8.6200
     8.7259   8.7454   9.0814   9.6263   9.7853  10.2350  10.4665  10.7527
    10.7935  11.3403  11.4533  11.5300  11.7172  12.0845  12.2403  12.6942
    12.7183  12.9058  13.0414  13.1146  13.6781  14.0155  14.2465  15.2887
    15.7220  16.3491  16.7666  17.5639

     the Fermi energy is    13.0956 ev

!    total energy              =   -1186.39486870 Ry
     estimated scf accuracy    <       0.00000003 Ry
     smearing contrib. (-TS)   =      -0.01967926 Ry
     internal energy E=F+TS    =   -1186.37518944 Ry

     The total energy is F=E-TS. E is the sum of the following terms:
     one-electron contribution =    -812.87294367 Ry
     hartree contribution      =     448.80710182 Ry
     xc contribution           =    -169.48640819 Ry
     ewald contribution        =    -652.82293940 Ry

     convergence has been achieved in   9 iterations

     Forces acting on atoms (cartesian axes, Ry/au):

     atom    1 type  1   force =     0.00000000    0.00000000    0.00000000
     atom    2 type  2   force =     0.00000000    0.00000000    0.00000000
     atom    3 type  3   force =     0.00152747   -0.00088189   -0.00167635
     atom    4 type  3   force =    -0.00149743    0.00086454    0.00167053
     atom    5 type  1   force =     0.00000000    0.00000000    0.00000000
     atom    6 type  2   force =     0.00000000    0.00000000    0.00000000
     atom    7 type  3   force =     0.00149743   -0.00086454   -0.00167053
     atom    8 type  3   force =    -0.00152747    0.00088189    0.00167635
     The non-local contrib.  to forces
     atom    1 type  1   force =     0.00000000    0.00000000    0.00000000
     atom    2 type  2   force =     0.00000000    0.00000000    0.00000000
     atom    3 type  3   force =    -0.05903818    0.03408571    0.03877345
     atom    4 type  3   force =     0.05902679   -0.03407913   -0.03877124
     atom    5 type  1   force =     0.00000000    0.00000000    0.00000000
     atom    6 type  2   force =     0.00000000    0.00000000    0.00000000
     atom    7 type  3   force =    -0.05902679    0.03407913    0.03877124
     atom    8 type  3   force =     0.05903818   -0.03408571   -0.03877345
     The ionic contribution  to forces
     atom    1 type  1   force =    -0.00000000    0.00000000   -0.00000000
     atom    2 type  2   force =    -0.00000000    0.00000000    0.00000000
     atom    3 type  3   force =    -1.32747106    0.76641577   -0.70354139
     atom    4 type  3   force =     1.32819148   -0.76683171    0.70369679
     atom    5 type  1   force =     0.00000000   -0.00000000    0.00000000
     atom    6 type  2   force =     0.00000000   -0.00000000   -0.00000000
     atom    7 type  3   force =    -1.32819148    0.76683171   -0.70369679
     atom    8 type  3   force =     1.32747106   -0.76641577    0.70354139
     The local contribution  to forces
     atom    1 type  1   force =    -0.00000000    0.00000001   -0.00000000
     atom    2 type  2   force =     0.00000000    0.00000002    0.00000000
     atom    3 type  3   force =     1.36269019   -0.78674955    0.68186261
     atom    4 type  3   force =    -1.36347099    0.78720034   -0.68206665
     atom    5 type  1   force =    -0.00000000    0.00000000    0.00000000
     atom    6 type  2   force =     0.00000000   -0.00000000   -0.00000000
     atom    7 type  3   force =     1.36347099   -0.78720034    0.68206665
     atom    8 type  3   force =    -1.36269019    0.78674955   -0.68186261
     The core correction contribution to forces
     atom    1 type  1   force =    -0.00000000    0.00000000   -0.00000000
     atom    2 type  2   force =     0.00000000    0.00000000   -0.00000000
     atom    3 type  3   force =     0.02529945   -0.01460704   -0.01882926
     atom    4 type  3   force =    -0.02530288    0.01460902    0.01882618
     atom    5 type  1   force =    -0.00000000    0.00000000    0.00000000
     atom    6 type  2   force =     0.00000000    0.00000000   -0.00000000
     atom    7 type  3   force =     0.02530288   -0.01460901   -0.01882618
     atom    8 type  3   force =    -0.02529945    0.01460704    0.01882926
     The Hubbard contrib.    to forces
     atom    1 type  1   force =     0.00000000    0.00000000    0.00000000
     atom    2 type  2   force =     0.00000000    0.00000000    0.00000000
     atom    3 type  3   force =     0.00000000    0.00000000    0.00000000
     atom    4 type  3   force =     0.00000000    0.00000000    0.00000000
     atom    5 type  1   force =     0.00000000    0.00000000    0.00000000
     atom    6 type  2   force =     0.00000000    0.00000000    0.00000000
     atom    7 type  3   force =     0.00000000    0.00000000    0.00000000
     atom    8 type  3   force =     0.00000000    0.00000000    0.00000000
     The SCF correction term to forces
     atom    1 type  1   force =    -0.00000000   -0.00000000    0.00000000
     atom    2 type  2   force =    -0.00000000    0.00000000    0.00000000
     atom    3 type  3   force =     0.00004690   -0.00002708    0.00005824
     atom    4 type  3   force =     0.00005833   -0.00003368   -0.00001455
     atom    5 type  1   force =    -0.00000000   -0.00000000   -0.00000000
     atom    6 type  2   force =     0.00000000    0.00000000   -0.00000000
     atom    7 type  3   force =    -0.00005833    0.00003368    0.00001455
     atom    8 type  3   force =    -0.00004690    0.00002708   -0.00005824

     Total force =     0.004838     Total SCF correction =     0.000149
     Energy error            =      3.5E-04 Ry
     Gradient error          =      1.7E-03 Ry/Bohr

     number of scf cycles    =  11
     number of bfgs steps    =  10

     energy             old  =   -1186.3945182459 Ry
     energy             new  =   -1186.3948687029 Ry

     CASE: energy            _new < energy            _old

     new trust radius        =       0.0049549059 bohr
     new conv_thr            =       0.0000000168 Ry


ATOMIC_POSITIONS (angstrom)
Mn           -1.8229020250        3.1573589245        0.0000000000
Ni           -1.8229020250        3.1573589245        2.5225330000
As           -1.6292138021        5.1504389266        1.1795025834
As           -2.0166591514        7.4790365530        3.8655270918
Mn            0.0000000000        0.0000000000        0.0000000000
Ni            0.0000000000        0.0000000000        2.5225330000
As            0.1937571264        1.9930402206        1.1795389082
As           -0.1936882229        4.3216378469        3.8655634166



     Writing config-only to output data dir ./tutorial.save/
     NEW-OLD atomic charge density approx. for the potential

     Check: negative core charge=   -0.000056

     total cpu time spent up to now is        7.8 secs

     Self-consistent Calculation

     iteration #  1     ecut=    40.42 Ry     beta= 0.70
     Davidson diagonalization with overlap
     ethr =  1.00E-06,  avg # of iterations =  2.0

     Threshold (ethr) on eigenvalues was too large:
     Diagonalizing with lowered threshold

     Davidson diagonalization with overlap
     ethr =  1.31E-08,  avg # of iterations =  2.0

     total cpu time spent up to now is        7.9 secs

     total energy              =   -1186.39489262 Ry
     estimated scf accuracy    <       0.00001113 Ry

     iteration #  2     ecut=    40.42 Ry     beta= 0.70
     Davidson diagonalization with overlap
     ethr =  1.29E-08,  avg # of iterations =  4.0

     total cpu time spent up to now is        7.9 secs

     total energy              =   -1186.39485229 Ry
     estimated scf accuracy    <       0.00080382 Ry

     iteration #  3     ecut=    40.42 Ry     beta= 0.70
     Davidson diagonalization with overlap
     ethr =  1.29E-08,  avg # of iterations =  5.0

     total cpu time spent up to now is        8.0 secs

     total energy              =   -1186.39487656 Ry
     estimated scf accuracy    <       0.00088820 Ry

     iteration #  4     ecut=    40.42 Ry     beta= 0.70
     Davidson diagonalization with overlap
     ethr =  1.29E-08,  avg # of iterations =  5.0

     total cpu time spent up to now is        8.0 secs

     total energy              =   -1186.39489639 Ry
     estimated scf accuracy    <       0.00004807 Ry

     iteration #  5     ecut=    40.42 Ry     beta= 0.70
     Davidson diagonalization with overlap
     ethr =  1.29E-08,  avg # of iterations =  4.0

     total cpu time spent up to now is        8.1 secs

     total energy              =   -1186.39489697 Ry
     estimated scf accuracy    <       0.00002777 Ry

     iteration #  6     ecut=    40.42 Ry     beta= 0.70
     Davidson diagonalization with overlap
     ethr =  1.29E-08,  avg # of iterations =  2.0

     total cpu time spent up to now is        8.1 secs

     total energy              =   -1186.39489884 Ry
     estimated scf accuracy    <       0.00000036 Ry

     iteration #  7     ecut=    40.42 Ry     beta= 0.70
     Davidson diagonalization with overlap
     ethr =  4.23E-10,  avg # of iterations =  5.0

     total cpu time spent up to now is        8.2 secs

     total energy              =   -1186.39489893 Ry
     estimated scf accuracy    <       0.00000027 Ry

     iteration #  8     ecut=    40.42 Ry     beta= 0.70
     Davidson diagonalization with overlap
     ethr =  3.12E-10,  avg # of iterations =  4.0

     total cpu time spent up to now is        8.2 secs

     total energy              =   -1186.39489896 Ry
     estimated scf accuracy    <       0.00000004 Ry

     iteration #  9     ecut=    40.42 Ry     beta= 0.70
     Davidson diagonalization with overlap
     ethr =  5.16E-11,  avg # of iterations =  1.0

     total cpu time spent up to now is        8.2 secs

     End of self-consistent calculation

          k = 0.0000 0.0000 0.0000 (  3355 PWs)   bands (ev):

   -90.3440 -90.3437 -65.4135 -65.4129 -50.5175 -50.5087 -50.4874 -50.4775
   -49.8970 -49.8212 -34.5535 -34.5520 -34.3272 -34.3159 -34.2004 -34.1974
    -1.2556   0.9635   1.8496   2.6085   6.1734   7.1582   8.1740   8.6127
     8.7224   8.7407   9.0830   9.6247   9.7844  10.2333  10.4798  10.7560
    10.7953  11.3446  11.4529  11.5281  11.7230  12.0795  12.2416  12.6855
    12.7139  12.9039  13.0377  13.1122  13.6779  14.0151  14.2454  15.2865
    15.7248  16.3471  16.7759  17.5728

     the Fermi energy is    13.0927 ev

!    total energy              =   -1186.39489896 Ry
     estimated scf accuracy    <          2.8E-09 Ry
     smearing contrib. (-TS)   =      -0.01966758 Ry
     internal energy E=F+TS    =   -1186.37523139 Ry

     The total energy is F=E-TS. E is the sum of the following terms:
     one-electron contribution =    -812.90087029 Ry
     hartree contribution      =     448.81871290 Ry
     xc contribution           =    -169.48841599 Ry
     ewald contribution        =    -652.80465800 Ry

     convergence has been achieved in   9 iterations

     Forces acting on atoms (cartesian axes, Ry/au):

     atom    1 type  1   force =     0.00000000    0.00000000    0.00000000
     atom    2 type  2   force =     0.00000000    0.00000000    0.00000000
     atom    3 type  3   force =     0.00047430   -0.00027384   -0.00045365
     atom    4 type  3   force =    -0.00044773    0.00025850    0.00044970
     atom    5 type  1   force =     0.00000000    0.00000000    0.00000000
     atom    6 type  2   force =     0.00000000    0.00000000    0.00000000
     atom    7 type  3   force =     0.00044773   -0.00025850   -0.00044970
     atom    8 type  3   force =    -0.00047430    0.00027384    0.00045365
     The non-local contrib.  to forces
     atom    1 type  1   force =     0.00000000    0.00000000    0.00000000
     atom    2 type  2   force =     0.00000000    0.00000000    0.00000000
     atom    3 type  3   force =    -0.05949407    0.03434892    0.03888209
     atom    4 type  3   force =     0.05949505   -0.03434948   -0.03887376
     atom    5 type  1   force =     0.00000000    0.00000000    0.00000000
     atom    6 type  2   force =     0.00000000    0.00000000    0.00000000
     atom    7 type  3   force =    -0.05949505    0.03434948    0.03887376
     atom    8 type  3   force =     0.05949407   -0.03434892   -0.03888209
     The ionic contribution  to forces
     atom    1 type  1   force =    -0.00000000    0.00000000   -0.00000000
     atom    2 type  2   force =    -0.00000000    0.00000000    0.00000000
     atom    3 type  3   force =    -1.33746718    0.77218704   -0.69017932
     atom    4 type  3   force =     1.33803626   -0.77251559    0.69036584
     atom    5 type  1   force =     0.00000000   -0.00000000    0.00000000
     atom    6 type  2   force =     0.00000000   -0.00000000   -0.00000000
     atom    7 type  3   force =    -1.33803626    0.77251559   -0.69036584
     atom    8 type  3   force =     1.33746718   -0.77218704    0.69017932
     The local contribution  to forces
     atom    1 type  1   force =    -0.00000000    0.00000001   -0.00000000
     atom    2 type  2   force =     0.00000000    0.00000002    0.00000000
     atom    3 type  3   force =     1.37199525   -0.79212183    0.66980383
     atom    4 type  3   force =    -1.37253713    0.79243468   -0.67001374
     atom    5 type  1   force =    -0.00000000    0.00000000    0.00000000
     atom    6 type  2   force =     0.00000000   -0.00000000   -0.00000000
     atom    7 type  3   force =     1.37253713   -0.79243468    0.67001374
     atom    8 type  3   force =    -1.37199525    0.79212183   -0.66980383
     The core correction contribution to forces
     atom    1 type  1   force =    -0.00000000    0.00000000   -0.00000000
     atom    2 type  2   force =     0.00000000    0.00000000   -0.00000000
     atom    3 type  3   force =     0.02543913   -0.01468757   -0.01895328
     atom    4 type  3   force =    -0.02544158    0.01468898    0.01894917
     atom    5 type  1   force =    -0.00000000    0.00000000    0.00000000
     atom    6 type  2   force =     0.00000000    0.00000000   -0.00000000
     atom    7 type  3   force =     0.02544158   -0.01468898   -0.01894917
     atom    8 type  3   force =    -0.02543913    0.01468757    0.01895328
     The Hubbard contrib.    to forces
     atom    1 type  1   force =     0.00000000    0.00000000    0.00000000
     atom    2 type  2   force =     0.00000000    0.00000000    0.00000000
     atom    3 type  3   force =     0.00000000    0.00000000    0.00000000
     atom    4 type  3   force =     0.00000000    0.00000000    0.00000000
     atom    5 type  1   force =     0.00000000    0.00000000    0.00000000
     atom    6 type  2   force =     0.00000000    0.00000000    0.00000000
     atom    7 type  3   force =     0.00000000    0.00000000    0.00000000
     atom    8 type  3   force =     0.00000000    0.00000000    0.00000000
     The SCF correction term to forces
     atom    1 type  1   force =     0.00000000    0.00000000   -0.00000000
     atom    2 type  2   force =     0.00000000   -0.00000000    0.00000000
     atom    3 type  3   force =     0.00000104   -0.00000060   -0.00000698
     atom    4 type  3   force =    -0.00000020    0.00000012    0.00002219
     atom    5 type  1   force =    -0.00000000   -0.00000000    0.00000000
     atom    6 type  2   force =    -0.00000000   -0.00000000   -0.00000000
     atom    7 type  3   force =     0.00000020   -0.00000012   -0.00002219
     atom    8 type  3   force =    -0.00000104    0.00000060    0.00000698

     Total force =     0.001397     Total SCF correction =     0.000033
     Energy error            =      3.0E-05 Ry
     Gradient error          =      4.7E-04 Ry/Bohr

     bfgs converged in  12 scf cycles and  11 bfgs steps
     (criteria: energy <  1.0E-04 Ry, force <  1.0E-03 Ry/Bohr)

     End of BFGS Geometry Optimization

     Final energy             =   -1186.3948989649 Ry

     File ./tutorial.bfgs deleted, as requested
Begin final coordinates

ATOMIC_POSITIONS (angstrom)
Mn           -1.8229020250        3.1573589245        0.0000000000
Ni           -1.8229020250        3.1573589245        2.5225330000
As           -1.6292138021        5.1504389266        1.1795025834
As           -2.0166591514        7.4790365530        3.8655270918
Mn            0.0000000000        0.0000000000        0.0000000000
Ni            0.0000000000        0.0000000000        2.5225330000
As            0.1937571264        1.9930402206        1.1795389082
As           -0.1936882229        4.3216378469        3.8655634166
End final coordinates



     Writing all to output data dir ./tutorial.save/
 
     init_run     :      0.12s CPU      0.14s WALL (       1 calls)
     electrons    :      6.25s CPU      6.88s WALL (      12 calls)
     update_pot   :      0.36s CPU      0.37s WALL (      11 calls)
     forces       :      0.41s CPU      0.46s WALL (      12 calls)

     Called by init_run:
     wfcinit      :      0.01s CPU      0.02s WALL (       1 calls)
     potinit      :      0.01s CPU      0.01s WALL (       1 calls)
     hinit0       :      0.08s CPU      0.08s WALL (       1 calls)

     Called by electrons:
     c_bands      :      4.09s CPU      4.37s WALL (     139 calls)
     sum_band     :      1.17s CPU      1.37s WALL (     139 calls)
     v_of_rho     :      0.22s CPU      0.23s WALL (     150 calls)
     newd         :      0.76s CPU      0.78s WALL (     150 calls)
     mix_rho      :      0.04s CPU      0.04s WALL (     139 calls)

     Called by c_bands:
     init_us_2    :      0.02s CPU      0.02s WALL (     279 calls)
     init_us_2:cp :      0.02s CPU      0.02s WALL (     279 calls)
     cegterg      :      3.98s CPU      4.22s WALL (     139 calls)

     Called by *egterg:
     cdiaghg      :      1.63s CPU      1.74s WALL (     615 calls)
     h_psi        :      1.90s CPU      2.01s WALL (     628 calls)
     s_psi        :      0.06s CPU      0.07s WALL (     628 calls)
     g_psi        :      0.01s CPU      0.01s WALL (     488 calls)

     Called by h_psi:
     h_psi:calbec :      0.11s CPU      0.12s WALL (     628 calls)
     vloc_psi     :      1.72s CPU      1.81s WALL (     628 calls)
     add_vuspsi   :      0.07s CPU      0.07s WALL (     628 calls)

     General routines
     calbec       :      0.16s CPU      0.17s WALL (     815 calls)
     fft          :      0.19s CPU      0.20s WALL (    1794 calls)
     ffts         :      0.01s CPU      0.01s WALL (     139 calls)
     fftw         :      1.87s CPU      1.98s WALL (   44432 calls)
 
     Parallel routines
 
     PWSCF        :      7.47s CPU      8.34s WALL

 
   This run was terminated on:  15:11: 0  30May2023            

=------------------------------------------------------------------------------=
   JOB DONE.
=------------------------------------------------------------------------------=
