
     Program PWSCF v.7.2 starts on 30May2023 at 15:14:40 

     This program is part of the open-source Quantum ESPRESSO suite
     for quantum simulation of materials; please cite
         "P. Giannozzi et al., J. Phys.:Condens. Matter 21 395502 (2009);
         "P. Giannozzi et al., J. Phys.:Condens. Matter 29 465901 (2017);
         "P. Giannozzi et al., J. Chem. Phys. 152 154105 (2020);
          URL http://www.quantum-espresso.org", 
     in publications or presentations arising from this work. More details at
     http://www.quantum-espresso.org/quote

     Parallel version (MPI), running on    28 processors

     MPI processes distributed on     1 nodes
     36518 MiB available memory on the printing compute node when the environment starts
 
     Waiting for input...
     Reading input from standard input
Warning: card &CELL ignored
Warning: card / ignored

     Current dimensions of program PWSCF are:
     Max number of different atomic species (ntypx) = 10
     Max number of k-points (npk) =  40000
     Max angular momentum in pseudopotentials (lmaxx) =  4
     file Mn.pbesol-spn-rrkjus_psl.0.3.1.UPF: wavefunction(s)  3D renormalized
     Message from routine setup:
     using ibrav=0 with symmetry is DISCOURAGED, use correct ibrav instead
 
     R & G space division:  proc/nbgrp/npool/nimage =      28
     Subspace diagonalization in iterative solution of the eigenvalue problem:
     a serial algorithm will be used

 
     Parallelization info
     --------------------
     sticks:   dense  smooth     PW     G-vecs:    dense   smooth      PW
     Min         106     106     26                 1454     1454     180
     Max         107     107     27                 1456     1456     181
     Sum        2983    2983    735                40735    40735    5061
 
     Using Slab Decomposition
 


     bravais-lattice index     =            0
     lattice parameter (alat)  =      11.7626  a.u.
     unit-cell volume          =    1175.7148 (a.u.)^3
     number of atoms/cell      =           12
     number of atomic types    =            3
     number of electrons       =       126.00
     number of Kohn-Sham states=           76
     kinetic-energy cutoff     =      40.4242  Ry
     charge density cutoff     =     161.6969  Ry
     scf convergence threshold =      1.0E-06
     mixing beta               =       0.7000
     number of iterations used =            8  plain     mixing
     energy convergence thresh.=      1.0E-04
     force convergence thresh. =      1.0E-03
     Exchange-correlation= PBESOL
                           (   1   4  10   8   0   0   0)
     nstep                     =           50


     celldm(1)=  11.762627  celldm(2)=   0.000000  celldm(3)=   0.000000
     celldm(4)=   0.000000  celldm(5)=   0.000000  celldm(6)=   0.000000

     crystal axes: (cart. coord. in units of alat)
               a(1) = (   0.585717   0.000000   0.810516 )  
               a(2) = (  -0.878576   1.521737   0.000000 )  
               a(3) = (   0.000000   0.000000   0.810516 )  

     reciprocal axes: (cart. coord. in units 2 pi/alat)
               b(1) = (  1.707309  0.985715  0.000000 )  
               b(2) = (  0.000000  0.657144  0.000000 )  
               b(3) = ( -1.707309 -0.985715  1.233783 )  


     PseudoPot. # 1 for Mn read from file:
     /home/valmzztt/Intermetallic_alloys/pseudos/Mn.pbesol-spn-rrkjus_psl.0.3.1.UPF
     MD5 check sum: 61e28eea34dae291f95a967fe31318f1
     Pseudo is Ultrasoft + core correction, Zval = 15.0
     Generated using &quot;atomic&quot; code by A. Dal Corso  v.6.3
     Using radial grid of 1187 points,  6 beta functions with: 
                l(1) =   0
                l(2) =   0
                l(3) =   1
                l(4) =   1
                l(5) =   2
                l(6) =   2
     Q(r) pseudized with 0 coefficients 


     PseudoPot. # 2 for Ni read from file:
     /home/valmzztt/Intermetallic_alloys/pseudos/Ni.pbesol-spn-rrkjus_psl.1.0.0.UPF
     MD5 check sum: 6fc0a587bf949a08f2faed986b854013
     Pseudo is Ultrasoft + core correction, Zval = 18.0
     Generated using &quot;atomic&quot; code by A. Dal Corso  v.6.3
     Using radial grid of 1195 points,  6 beta functions with: 
                l(1) =   0
                l(2) =   0
                l(3) =   1
                l(4) =   1
                l(5) =   2
                l(6) =   2
     Q(r) pseudized with 0 coefficients 


     PseudoPot. # 3 for As read from file:
     /home/valmzztt/Intermetallic_alloys/pseudos/As.pbesol-n-rrkjus_psl.1.0.0.UPF
     MD5 check sum: 2fb13bbab3d0b4e108be5408f3d6fe7c
     Pseudo is Ultrasoft + core correction, Zval =  5.0
     Generated using &quot;atomic&quot; code by A. Dal Corso  v.6.3
     Using radial grid of 1209 points,  4 beta functions with: 
                l(1) =   0
                l(2) =   0
                l(3) =   1
                l(4) =   1
     Q(r) pseudized with 0 coefficients 


     atomic species   valence    mass     pseudopotential
        Mn            15.00    54.93804     Mn( 1.00)
        Ni            18.00    58.69340     Ni( 1.00)
        As             5.00    74.92159     As( 1.00)

      4 Sym. Ops. (no inversion) found ( 2 have fractional translation)



   Cartesian axes

     site n.     atom                  positions (alat units)
         1           Mn  tau(   1) = (  -0.5857170   1.0144917   0.0000000  )
         2           Ni  tau(   2) = (  -0.5857170   1.0144917   0.4052578  )
         3           As  tau(   3) = (  -0.5857170   1.3526556   1.0131445  )
         4           Mn  tau(   4) = (  -0.2928585   0.5072458   0.0000000  )
         5           Mn  tau(   5) = (  -0.2928585   0.5072458   0.4052578  )
         6           As  tau(   6) = (  -0.2928585   0.8454097   1.0131445  )
         7           As  tau(   7) = (  -0.2928585   1.1835736   0.6078867  )
         8           Ni  tau(   8) = (   0.0000000   0.0000000   0.0000000  )
         9           Mn  tau(   9) = (   0.0000000   0.0000000   0.4052578  )
        10           As  tau(  10) = (  -0.0000000   0.3381639   1.0131445  )
        11           As  tau(  11) = (   0.0000000   0.6763278   0.6078867  )
        12           As  tau(  12) = (   0.2928585   0.1690819   0.6078867  )

     number of k points=     1  Gaussian smearing, width (Ry)=  0.0147
                       cart. coord. in units 2pi/alat
        k(    1) = (   0.0000000   0.0000000   0.0000000), wk =   2.0000000

     Dense  grid:    40735 G-vectors     FFT dimensions: (  48,  90,  40)

     Estimated max dynamical RAM per process >       9.51 MB

     Estimated total dynamical RAM >     266.41 MB

     Check: negative core charge=   -0.000073

     Initial potential from superposition of free atoms

     starting charge     125.9964, renormalised to     126.0000
     Starting wfcs are   84 randomized atomic wfcs

     total cpu time spent up to now is        0.4 secs

     Self-consistent Calculation

     iteration #  1     ecut=    40.42 Ry     beta= 0.70
     Davidson diagonalization with overlap
     ethr =  1.00E-02,  avg # of iterations =  2.0

     total cpu time spent up to now is        0.6 secs

     total energy              =   -1651.86618403 Ry
     estimated scf accuracy    <       3.55730384 Ry

     iteration #  2     ecut=    40.42 Ry     beta= 0.70
     Davidson diagonalization with overlap
     ethr =  2.82E-03,  avg # of iterations =  6.0

     total cpu time spent up to now is        0.7 secs

     total energy              =   -1647.52960957 Ry
     estimated scf accuracy    <      93.34428811 Ry

     iteration #  3     ecut=    40.42 Ry     beta= 0.70
     Davidson diagonalization with overlap
     ethr =  2.82E-03,  avg # of iterations =  9.0

     total cpu time spent up to now is        1.0 secs

     total energy              =   -1650.17913402 Ry
     estimated scf accuracy    <     105.36445776 Ry

     iteration #  4     ecut=    40.42 Ry     beta= 0.70
     Davidson diagonalization with overlap
     ethr =  2.82E-03,  avg # of iterations =  6.0

     total cpu time spent up to now is        1.1 secs

     total energy              =   -1654.05097548 Ry
     estimated scf accuracy    <      15.26434420 Ry

     iteration #  5     ecut=    40.42 Ry     beta= 0.70
     Davidson diagonalization with overlap
     ethr =  2.82E-03,  avg # of iterations =  1.0

     total cpu time spent up to now is        1.2 secs

     total energy              =   -1654.25021543 Ry
     estimated scf accuracy    <       2.09644310 Ry

     iteration #  6     ecut=    40.42 Ry     beta= 0.70
     Davidson diagonalization with overlap
     ethr =  1.66E-03,  avg # of iterations =  2.0

     total cpu time spent up to now is        1.3 secs

     total energy              =   -1654.28860976 Ry
     estimated scf accuracy    <       1.71793521 Ry

     iteration #  7     ecut=    40.42 Ry     beta= 0.70
     Davidson diagonalization with overlap
     ethr =  1.36E-03,  avg # of iterations =  1.0

     total cpu time spent up to now is        1.4 secs

     total energy              =   -1654.29326718 Ry
     estimated scf accuracy    <       3.16520307 Ry

     iteration #  8     ecut=    40.42 Ry     beta= 0.70
     Davidson diagonalization with overlap
     ethr =  1.36E-03,  avg # of iterations =  1.0

     total cpu time spent up to now is        1.5 secs

     total energy              =   -1654.33324853 Ry
     estimated scf accuracy    <       0.10334259 Ry

     iteration #  9     ecut=    40.42 Ry     beta= 0.70
     Davidson diagonalization with overlap
     ethr =  8.20E-05,  avg # of iterations =  2.0

     total cpu time spent up to now is        1.6 secs

     total energy              =   -1654.33764529 Ry
     estimated scf accuracy    <       0.05563946 Ry

     iteration # 10     ecut=    40.42 Ry     beta= 0.70
     Davidson diagonalization with overlap
     ethr =  4.42E-05,  avg # of iterations =  2.0

     total cpu time spent up to now is        1.7 secs

     total energy              =   -1654.33580661 Ry
     estimated scf accuracy    <       0.07384841 Ry

     iteration # 11     ecut=    40.42 Ry     beta= 0.70
     Davidson diagonalization with overlap
     ethr =  4.42E-05,  avg # of iterations =  1.0

     total cpu time spent up to now is        1.8 secs

     total energy              =   -1654.33726082 Ry
     estimated scf accuracy    <       0.04381840 Ry

     iteration # 12     ecut=    40.42 Ry     beta= 0.70
     Davidson diagonalization with overlap
     ethr =  3.48E-05,  avg # of iterations =  1.0

     total cpu time spent up to now is        1.9 secs

     total energy              =   -1654.33778866 Ry
     estimated scf accuracy    <       0.00235426 Ry

     iteration # 13     ecut=    40.42 Ry     beta= 0.70
     Davidson diagonalization with overlap
     ethr =  1.87E-06,  avg # of iterations = 19.0

     total cpu time spent up to now is        2.1 secs

     total energy              =   -1654.33785996 Ry
     estimated scf accuracy    <       0.00398754 Ry

     iteration # 14     ecut=    40.42 Ry     beta= 0.70
     Davidson diagonalization with overlap
     ethr =  1.87E-06,  avg # of iterations =  1.0

     total cpu time spent up to now is        2.2 secs

     total energy              =   -1654.33789152 Ry
     estimated scf accuracy    <       0.00134500 Ry

     iteration # 15     ecut=    40.42 Ry     beta= 0.70
     Davidson diagonalization with overlap
     ethr =  1.07E-06,  avg # of iterations =  1.0

     total cpu time spent up to now is        2.3 secs

     total energy              =   -1654.33796326 Ry
     estimated scf accuracy    <       0.00002525 Ry

     iteration # 16     ecut=    40.42 Ry     beta= 0.70
     Davidson diagonalization with overlap
     ethr =  2.00E-08,  avg # of iterations =  5.0

     total cpu time spent up to now is        2.4 secs

     total energy              =   -1654.33797286 Ry
     estimated scf accuracy    <       0.00000716 Ry

     iteration # 17     ecut=    40.42 Ry     beta= 0.70
     Davidson diagonalization with overlap
     ethr =  5.68E-09,  avg # of iterations =  2.0

     total cpu time spent up to now is        2.5 secs

     total energy              =   -1654.33797328 Ry
     estimated scf accuracy    <       0.00000504 Ry

     iteration # 18     ecut=    40.42 Ry     beta= 0.70
     Davidson diagonalization with overlap
     ethr =  4.00E-09,  avg # of iterations =  1.0

     total cpu time spent up to now is        2.6 secs

     total energy              =   -1654.33797357 Ry
     estimated scf accuracy    <       0.00000310 Ry

     iteration # 19     ecut=    40.42 Ry     beta= 0.70
     Davidson diagonalization with overlap
     ethr =  2.46E-09,  avg # of iterations =  1.0

     total cpu time spent up to now is        2.7 secs

     total energy              =   -1654.33797365 Ry
     estimated scf accuracy    <       0.00000136 Ry

     iteration # 20     ecut=    40.42 Ry     beta= 0.70
     Davidson diagonalization with overlap
     ethr =  1.08E-09,  avg # of iterations =  1.0

     total cpu time spent up to now is        2.8 secs

     End of self-consistent calculation

          k = 0.0000 0.0000 0.0000 (  5061 PWs)   bands (ev):

   -90.4256 -90.4247 -65.4180 -65.3723 -64.9831 -64.9831 -50.5246 -50.4796
   -50.4496 -50.4212 -50.2360 -50.2239 -34.9705 -34.6195 -34.4042 -34.4040
   -34.1296 -34.0871 -34.0838 -34.0301 -33.7912 -33.7908 -33.5489 -33.5486
    -1.0603   0.2926   0.2971   2.4094   2.4370   2.6429   6.4183   7.4562
     7.4791   8.0532   8.0703   8.9552   9.0389   9.1887   9.2231   9.2275
     9.3185  10.0190  10.0714  10.2820  10.3113  10.3465  10.4812  10.5240
    10.8589  11.0080  11.3391  11.4321  11.9416  11.9845  12.3298  12.6040
    12.8879  12.9247  13.0165  13.0425  13.3588  13.3956  13.5075  13.5447
    13.5641  13.5798  13.6171  13.9875  14.2807  14.4137  14.8684  15.6997
    15.7220  16.4235  16.5891  17.1800

     the Fermi energy is    13.4827 ev

!    total energy              =   -1654.33797364 Ry
     estimated scf accuracy    <       0.00000008 Ry
     smearing contrib. (-TS)   =      -0.04719351 Ry
     internal energy E=F+TS    =   -1654.29078014 Ry

     The total energy is F=E-TS. E is the sum of the following terms:
     one-electron contribution =   -1079.31001559 Ry
     hartree contribution      =     601.62710778 Ry
     xc contribution           =    -247.73846077 Ry
     ewald contribution        =    -928.86941155 Ry

     convergence has been achieved in  20 iterations

     Forces acting on atoms (cartesian axes, Ry/au):

     atom    1 type  1   force =     0.00000000   -0.01267937    0.00823180
     atom    2 type  2   force =     0.00000000    0.00662980    0.00770874
     atom    3 type  3   force =     0.00000000    0.01328721    0.03191881
     atom    4 type  1   force =     0.00000000    0.00279839   -0.02167996
     atom    5 type  1   force =     0.00000000   -0.00279839   -0.02167996
     atom    6 type  3   force =     0.00000000    0.01917520   -0.03295538
     atom    7 type  3   force =     0.00000000   -0.01328721    0.03191881
     atom    8 type  2   force =     0.00000000   -0.00662980    0.00770874
     atom    9 type  1   force =     0.00000000    0.01267937    0.00823180
     atom   10 type  3   force =     0.00000000    0.01436766    0.00677599
     atom   11 type  3   force =     0.00000000   -0.01436766    0.00677599
     atom   12 type  3   force =     0.00000000   -0.01917520   -0.03295538
     The non-local contrib.  to forces
     atom    1 type  1   force =     0.00000000   -0.00847140   -0.00110239
     atom    2 type  2   force =     0.00000000    0.02967804   -0.00727263
     atom    3 type  3   force =     0.00000000    0.00411535   -0.01447462
     atom    4 type  1   force =     0.00000000    0.04758451   -0.00551427
     atom    5 type  1   force =     0.00000000   -0.04758451   -0.00551427
     atom    6 type  3   force =     0.00000000    0.00349064    0.02633533
     atom    7 type  3   force =     0.00000000   -0.00411535   -0.01447462
     atom    8 type  2   force =     0.00000000   -0.02967804   -0.00727263
     atom    9 type  1   force =     0.00000000    0.00847140   -0.00110239
     atom   10 type  3   force =     0.00000000   -0.03472404   -0.02815001
     atom   11 type  3   force =     0.00000000    0.03472404   -0.02815001
     atom   12 type  3   force =     0.00000000   -0.00349064    0.02633533
     The ionic contribution  to forces
     atom    1 type  1   force =    -0.00000000   -3.08875261   -0.00000000
     atom    2 type  2   force =    -0.00000000   -3.01198928    0.00000000
     atom    3 type  3   force =     0.00000016    0.32339571    0.40359995
     atom    4 type  1   force =     0.00000000    0.57876154   -0.00000000
     atom    5 type  1   force =    -0.00000000   -0.57876154    0.00000000
     atom    6 type  3   force =     0.00000016   -1.69997936   -0.85627144
     atom    7 type  3   force =    -0.00000016   -0.32339572    0.40359995
     atom    8 type  2   force =     0.00000000    3.01198928    0.00000000
     atom    9 type  1   force =     0.00000000    3.08875261   -0.00000000
     atom   10 type  3   force =     0.00000014    1.37658338    0.45267150
     atom   11 type  3   force =    -0.00000014   -1.37658338    0.45267150
     atom   12 type  3   force =    -0.00000016    1.69997936   -0.85627144
     The local contribution  to forces
     atom    1 type  1   force =    -0.00000000    3.08709009    0.00894845
     atom    2 type  2   force =    -0.00000000    2.98769354    0.01500148
     atom    3 type  3   force =    -0.00000018   -0.31263130   -0.36113691
     atom    4 type  1   force =    -0.00000000   -0.62781117   -0.01688673
     atom    5 type  1   force =    -0.00000000    0.62781117   -0.01688673
     atom    6 type  3   force =    -0.00000019    1.71911407    0.80492373
     atom    7 type  3   force =     0.00000018    0.31263130   -0.36113691
     atom    8 type  2   force =     0.00000000   -2.98769354    0.01500148
     atom    9 type  1   force =     0.00000000   -3.08709009    0.00894845
     atom   10 type  3   force =    -0.00000016   -1.33511351   -0.42503440
     atom   11 type  3   force =     0.00000016    1.33511351   -0.42503440
     atom   12 type  3   force =     0.00000019   -1.71911407    0.80492373
     The core correction contribution to forces
     atom    1 type  1   force =    -0.00000525   -0.00324690    0.00041085
     atom    2 type  2   force =    -0.00000006    0.00046401    0.00012886
     atom    3 type  3   force =    -0.00000014   -0.00151550    0.00389645
     atom    4 type  1   force =     0.00000432    0.00429142    0.00070150
     atom    5 type  1   force =    -0.00000387   -0.00428224    0.00069246
     atom    6 type  3   force =    -0.00000063   -0.00370390   -0.00797263
     atom    7 type  3   force =    -0.00000002    0.00151574    0.00389821
     atom    8 type  2   force =     0.00000012   -0.00046303    0.00013115
     atom    9 type  1   force =     0.00000483    0.00324295    0.00042055
     atom   10 type  3   force =     0.00000050    0.00778807    0.00725918
     atom   11 type  3   force =     0.00000084   -0.00778766    0.00726241
     atom   12 type  3   force =    -0.00000027    0.00370349   -0.00797019
     The Hubbard contrib.    to forces
     atom    1 type  1   force =     0.00000000    0.00000000    0.00000000
     atom    2 type  2   force =     0.00000000    0.00000000    0.00000000
     atom    3 type  3   force =     0.00000000    0.00000000    0.00000000
     atom    4 type  1   force =     0.00000000    0.00000000    0.00000000
     atom    5 type  1   force =     0.00000000    0.00000000    0.00000000
     atom    6 type  3   force =     0.00000000    0.00000000    0.00000000
     atom    7 type  3   force =     0.00000000    0.00000000    0.00000000
     atom    8 type  2   force =     0.00000000    0.00000000    0.00000000
     atom    9 type  1   force =     0.00000000    0.00000000    0.00000000
     atom   10 type  3   force =     0.00000000    0.00000000    0.00000000
     atom   11 type  3   force =     0.00000000    0.00000000    0.00000000
     atom   12 type  3   force =     0.00000000    0.00000000    0.00000000
     The SCF correction term to forces
     atom    1 type  1   force =    -0.00000001    0.00069947   -0.00005967
     atom    2 type  2   force =     0.00000006    0.00078392   -0.00017976
     atom    3 type  3   force =     0.00000001   -0.00007693    0.00000337
     atom    4 type  1   force =     0.00000001   -0.00002332   -0.00000564
     atom    5 type  1   force =     0.00000000    0.00002332   -0.00000565
     atom    6 type  3   force =     0.00000001    0.00025356   -0.00000129
     atom    7 type  3   force =     0.00000001    0.00007694    0.00000337
     atom    8 type  2   force =     0.00000005   -0.00078405   -0.00017989
     atom    9 type  1   force =    -0.00000002   -0.00069947   -0.00005966
     atom   10 type  3   force =     0.00000000   -0.00016604   -0.00000161
     atom   11 type  3   force =     0.00000000    0.00016604   -0.00000160
     atom   12 type  3   force =     0.00000000   -0.00025355   -0.00000129

     Total force =     0.086153     Total SCF correction =     0.001574

     BFGS Geometry Optimization
     Energy error            =      0.0E+00 Ry
     Gradient error          =      3.3E-02 Ry/Bohr

     number of scf cycles    =   1
     number of bfgs steps    =   0

     energy             new  =   -1654.3379736440 Ry

     new trust radius        =       0.0381280171 bohr
     new conv_thr            =       0.0000010000 Ry


ATOMIC_POSITIONS (angstrom)
Mn           -3.6458040500        6.3080082161        0.0043560819
Ni           -3.6458040500        6.3182261878        2.5266122895
As           -3.6458040682        8.4266550989        6.3232232092
Mn           -1.8229020250        3.1588397673       -0.0114725395
Mn           -1.8229020250        3.1558780817        2.5110604605
As           -1.8229020432        5.2724119646        6.2888932619
As           -1.8229020068        7.3601395237        3.8006902092
Ni           -0.0000000000       -0.0035083388        0.0040792895
Mn            0.0000000000        0.0067096329        2.5268890819
As           -0.0000000182        2.1125089975        6.3099181970
As            0.0000000182        4.2022088515        3.7873851970
As            1.8229020432        1.0423058844        3.7663602619



     Writing config-only to output data dir ./tutorial.save/
     NEW-OLD atomic charge density approx. for the potential

     Check: negative core charge=   -0.000072

     total cpu time spent up to now is        3.0 secs

     Self-consistent Calculation

     iteration #  1     ecut=    40.42 Ry     beta= 0.70
     Davidson diagonalization with overlap
     ethr =  1.00E-06,  avg # of iterations =  7.0

     total cpu time spent up to now is        3.2 secs

     total energy              =   -1654.33969743 Ry
     estimated scf accuracy    <       0.01266026 Ry

     iteration #  2     ecut=    40.42 Ry     beta= 0.70
     Davidson diagonalization with overlap
     ethr =  1.00E-05,  avg # of iterations =  8.0

     total cpu time spent up to now is        3.4 secs

     total energy              =   -1654.19220243 Ry
     estimated scf accuracy    <      11.13613570 Ry

     iteration #  3     ecut=    40.42 Ry     beta= 0.70
     Davidson diagonalization with overlap
     ethr =  1.00E-05,  avg # of iterations =  9.0

     total cpu time spent up to now is        3.6 secs

     total energy              =   -1654.33043986 Ry
     estimated scf accuracy    <       0.46674398 Ry

     iteration #  4     ecut=    40.42 Ry     beta= 0.70
     Davidson diagonalization with overlap
     ethr =  1.00E-05,  avg # of iterations =  4.0

     total cpu time spent up to now is        3.7 secs

     total energy              =   -1654.33586185 Ry
     estimated scf accuracy    <       0.37314819 Ry

     iteration #  5     ecut=    40.42 Ry     beta= 0.70
     Davidson diagonalization with overlap
     ethr =  1.00E-05,  avg # of iterations =  4.0

     total cpu time spent up to now is        3.8 secs

     total energy              =   -1654.34486049 Ry
     estimated scf accuracy    <       0.00380441 Ry

     iteration #  6     ecut=    40.42 Ry     beta= 0.70
     Davidson diagonalization with overlap
     ethr =  3.02E-06,  avg # of iterations =  4.0

     total cpu time spent up to now is        3.9 secs

     total energy              =   -1654.34515740 Ry
     estimated scf accuracy    <       0.00258639 Ry

     iteration #  7     ecut=    40.42 Ry     beta= 0.70
     Davidson diagonalization with overlap
     ethr =  2.05E-06,  avg # of iterations =  2.0

     total cpu time spent up to now is        4.0 secs

     total energy              =   -1654.34534084 Ry
     estimated scf accuracy    <       0.00101202 Ry

     iteration #  8     ecut=    40.42 Ry     beta= 0.70
     Davidson diagonalization with overlap
     ethr =  8.03E-07,  avg # of iterations =  2.0

     total cpu time spent up to now is        4.1 secs

     total energy              =   -1654.34536868 Ry
     estimated scf accuracy    <       0.00025026 Ry

     iteration #  9     ecut=    40.42 Ry     beta= 0.70
     Davidson diagonalization with overlap
     ethr =  1.99E-07,  avg # of iterations =  2.0

     total cpu time spent up to now is        4.2 secs

     total energy              =   -1654.34537502 Ry
     estimated scf accuracy    <       0.00011216 Ry

     iteration # 10     ecut=    40.42 Ry     beta= 0.70
     Davidson diagonalization with overlap
     ethr =  8.90E-08,  avg # of iterations =  2.0

     total cpu time spent up to now is        4.3 secs

     total energy              =   -1654.34537677 Ry
     estimated scf accuracy    <       0.00006247 Ry

     iteration # 11     ecut=    40.42 Ry     beta= 0.70
     Davidson diagonalization with overlap
     ethr =  4.96E-08,  avg # of iterations =  1.0

     total cpu time spent up to now is        4.4 secs

     total energy              =   -1654.34537761 Ry
     estimated scf accuracy    <       0.00002765 Ry

     iteration # 12     ecut=    40.42 Ry     beta= 0.70
     Davidson diagonalization with overlap
     ethr =  2.19E-08,  avg # of iterations =  2.0

     total cpu time spent up to now is        4.5 secs

     total energy              =   -1654.34537760 Ry
     estimated scf accuracy    <       0.00002762 Ry

     iteration # 13     ecut=    40.42 Ry     beta= 0.70
     Davidson diagonalization with overlap
     ethr =  2.19E-08,  avg # of iterations =  1.0

     total cpu time spent up to now is        4.6 secs

     total energy              =   -1654.34537809 Ry
     estimated scf accuracy    <       0.00004028 Ry

     iteration # 14     ecut=    40.42 Ry     beta= 0.70
     Davidson diagonalization with overlap
     ethr =  2.19E-08,  avg # of iterations =  1.0

     total cpu time spent up to now is        4.7 secs

     total energy              =   -1654.34537868 Ry
     estimated scf accuracy    <       0.00000136 Ry

     iteration # 15     ecut=    40.42 Ry     beta= 0.70
     Davidson diagonalization with overlap
     ethr =  1.08E-09,  avg # of iterations =  5.0

     total cpu time spent up to now is        4.8 secs

     End of self-consistent calculation

          k = 0.0000 0.0000 0.0000 (  5061 PWs)   bands (ev):

   -90.4066 -90.4057 -65.4152 -65.3694 -64.9883 -64.9883 -50.4971 -50.4514
   -50.4358 -50.4079 -50.2198 -50.2075 -34.9684 -34.6173 -34.3975 -34.3973
   -34.1250 -34.0827 -34.0825 -34.0291 -33.8063 -33.8059 -33.5595 -33.5592
    -1.0583   0.2943   0.3018   2.4072   2.4351   2.6427   6.4151   7.4802
     7.5005   8.0374   8.0564   8.9658   9.0492   9.1881   9.2159   9.2322
     9.3119  10.0254  10.0839  10.3024  10.3310  10.3573  10.4489  10.5124
    10.8772  11.0155  11.3406  11.4408  11.9568  11.9849  12.3407  12.5896
    12.8871  12.8938  13.0107  13.0403  13.3576  13.3852  13.5162  13.5558
    13.5620  13.5774  13.6257  13.9911  14.2667  14.4141  14.8754  15.7105
    15.7263  16.4118  16.5970  17.2251

     the Fermi energy is    13.4847 ev

!    total energy              =   -1654.34537842 Ry
     estimated scf accuracy    <       0.00000040 Ry
     smearing contrib. (-TS)   =      -0.04639101 Ry
     internal energy E=F+TS    =   -1654.29898741 Ry

     The total energy is F=E-TS. E is the sum of the following terms:
     one-electron contribution =   -1079.13226028 Ry
     hartree contribution      =     601.54460244 Ry
     xc contribution           =    -247.74209990 Ry
     ewald contribution        =    -928.96922967 Ry

     convergence has been achieved in  15 iterations

     Forces acting on atoms (cartesian axes, Ry/au):

     atom    1 type  1   force =     0.00000000   -0.01895308    0.00700054
     atom    2 type  2   force =     0.00000000    0.00862319    0.00762746
     atom    3 type  3   force =     0.00000000    0.01359125    0.02716791
     atom    4 type  1   force =     0.00000000    0.01132699   -0.02391531
     atom    5 type  1   force =     0.00000000   -0.01132699   -0.02391531
     atom    6 type  3   force =     0.00000000    0.02216548   -0.02881276
     atom    7 type  3   force =     0.00000000   -0.01359125    0.02716791
     atom    8 type  2   force =     0.00000000   -0.00862319    0.00762746
     atom    9 type  1   force =     0.00000000    0.01895308    0.00700054
     atom   10 type  3   force =     0.00000000    0.01544278    0.01093216
     atom   11 type  3   force =     0.00000000   -0.01544278    0.01093216
     atom   12 type  3   force =     0.00000000   -0.02216548   -0.02881276
     The non-local contrib.  to forces
     atom    1 type  1   force =     0.00000000   -0.01427147    0.00122238
     atom    2 type  2   force =    -0.00000000    0.02431116   -0.00463471
     atom    3 type  3   force =     0.00000000    0.00170609   -0.01848624
     atom    4 type  1   force =     0.00000000    0.05597391   -0.01236608
     atom    5 type  1   force =     0.00000000   -0.05597391   -0.01236608
     atom    6 type  3   force =     0.00000000   -0.00108737    0.02978134
     atom    7 type  3   force =     0.00000000   -0.00170609   -0.01848624
     atom    8 type  2   force =    -0.00000000   -0.02431116   -0.00463471
     atom    9 type  1   force =     0.00000000    0.01427147    0.00122238
     atom   10 type  3   force =     0.00000000   -0.03658578   -0.02822841
     atom   11 type  3   force =     0.00000000    0.03658578   -0.02822841
     atom   12 type  3   force =     0.00000000    0.00108737    0.02978134
     The ionic contribution  to forces
     atom    1 type  1   force =    -0.00000000   -2.97542732   -0.02443802
     atom    2 type  2   force =     0.00000000   -3.02292863    0.02141314
     atom    3 type  3   force =     0.00000016    0.27146752    0.34254349
     atom    4 type  1   force =     0.00000000    0.38782281    0.02459762
     atom    5 type  1   force =    -0.00000000   -0.38782281    0.02459762
     atom    6 type  3   force =     0.00000016   -1.76027346   -0.70392867
     atom    7 type  3   force =    -0.00000016   -0.27146752    0.34254349
     atom    8 type  2   force =    -0.00000000    3.02292863    0.02141314
     atom    9 type  1   force =     0.00000000    2.97542732   -0.02443802
     atom   10 type  3   force =     0.00000014    1.31261427    0.33981244
     atom   11 type  3   force =    -0.00000014   -1.31261427    0.33981244
     atom   12 type  3   force =    -0.00000016    1.76027346   -0.70392867
     The local contribution  to forces
     atom    1 type  1   force =    -0.00000000    2.97378270    0.03051442
     atom    2 type  2   force =    -0.00000000    3.00596537   -0.01002573
     atom    3 type  3   force =    -0.00000019   -0.25940093   -0.30218610
     atom    4 type  1   force =    -0.00000000   -0.43639750   -0.03798760
     atom    5 type  1   force =    -0.00000000    0.43639750   -0.03798760
     atom    6 type  3   force =    -0.00000019    1.78517482    0.65528752
     atom    7 type  3   force =     0.00000019    0.25940093   -0.30218610
     atom    8 type  2   force =     0.00000000   -3.00596537   -0.01002573
     atom    9 type  1   force =     0.00000000   -2.97378270    0.03051442
     atom   10 type  3   force =    -0.00000017   -1.26952436   -0.30936969
     atom   11 type  3   force =     0.00000017    1.26952436   -0.30936969
     atom   12 type  3   force =     0.00000019   -1.78517482    0.65528752
     The core correction contribution to forces
     atom    1 type  1   force =    -0.00000205   -0.00327291    0.00000224
     atom    2 type  2   force =     0.00000121    0.00077610    0.00033447
     atom    3 type  3   force =    -0.00000045   -0.00016558    0.00518821
     atom    4 type  1   force =    -0.00000854    0.00372656    0.00177332
     atom    5 type  1   force =    -0.00001666   -0.00372817    0.00176645
     atom    6 type  3   force =    -0.00000050   -0.00157908   -0.00988324
     atom    7 type  3   force =    -0.00000015    0.00016557    0.00519032
     atom    8 type  2   force =     0.00000169   -0.00077678    0.00033740
     atom    9 type  1   force =     0.00000677    0.00327005    0.00001739
     atom   10 type  3   force =     0.00000044    0.00885268    0.00858633
     atom   11 type  3   force =     0.00000087   -0.00885229    0.00858970
     atom   12 type  3   force =     0.00000002    0.00157901   -0.00988065
     The Hubbard contrib.    to forces
     atom    1 type  1   force =     0.00000000    0.00000000    0.00000000
     atom    2 type  2   force =     0.00000000    0.00000000    0.00000000
     atom    3 type  3   force =     0.00000000    0.00000000    0.00000000
     atom    4 type  1   force =     0.00000000    0.00000000    0.00000000
     atom    5 type  1   force =     0.00000000    0.00000000    0.00000000
     atom    6 type  3   force =     0.00000000    0.00000000    0.00000000
     atom    7 type  3   force =     0.00000000    0.00000000    0.00000000
     atom    8 type  2   force =     0.00000000    0.00000000    0.00000000
     atom    9 type  1   force =     0.00000000    0.00000000    0.00000000
     atom   10 type  3   force =     0.00000000    0.00000000    0.00000000
     atom   11 type  3   force =     0.00000000    0.00000000    0.00000000
     atom   12 type  3   force =     0.00000000    0.00000000    0.00000000
     The SCF correction term to forces
     atom    1 type  1   force =    -0.00000000    0.00023448   -0.00036570
     atom    2 type  2   force =    -0.00000001    0.00049885    0.00048117
     atom    3 type  3   force =     0.00000000   -0.00001585    0.00004985
     atom    4 type  1   force =     0.00000000    0.00020041    0.00001323
     atom    5 type  1   force =    -0.00000000   -0.00020041    0.00001322
     atom    6 type  3   force =     0.00000000   -0.00006947   -0.00012864
     atom    7 type  3   force =     0.00000001    0.00001585    0.00004985
     atom    8 type  2   force =     0.00000001   -0.00049885    0.00048120
     atom    9 type  1   force =     0.00000001   -0.00023448   -0.00036570
     atom   10 type  3   force =     0.00000000    0.00008615    0.00007217
     atom   11 type  3   force =    -0.00000000   -0.00008615    0.00007217
     atom   12 type  3   force =    -0.00000000    0.00006947   -0.00012864

     Total force =     0.087673     Total SCF correction =     0.001222
     Energy error            =      7.4E-03 Ry
     Gradient error          =      2.9E-02 Ry/Bohr

     number of scf cycles    =   2
     number of bfgs steps    =   1

     energy             old  =   -1654.3379736440 Ry
     energy             new  =   -1654.3453784204 Ry

     CASE: energy            _new < energy            _old


     WARNING: bfgs curvature condition failed, Theta= 0.806
     new trust radius        =       0.0419408188 bohr
     new conv_thr            =       0.0000002881 Ry


ATOMIC_POSITIONS (angstrom)
Mn           -3.6458040500        6.3002989214        0.0091105437
Ni           -3.6458040500        6.3221964194        2.5311152852
As           -3.6458040682        8.4344376975        6.3416597389
Mn           -1.8229020250        3.1608787903       -0.0242531251
Mn           -1.8229020250        3.1538390587        2.4982798749
As           -1.8229020432        5.2837638405        6.2698219715
As           -1.8229020068        7.3523569251        3.8191267389
Ni           -0.0000000000       -0.0074785704        0.0085822852
Mn            0.0000000000        0.0144189276        2.5316435437
As           -0.0000000182        2.1209597011        6.3140760858
As            0.0000000182        4.1937581479        3.7915430858
As            1.8229020432        1.0309540085        3.7472889715



     Writing config-only to output data dir ./tutorial.save/
     NEW-OLD atomic charge density approx. for the potential

     Check: negative core charge=   -0.000072

     total cpu time spent up to now is        5.0 secs

     Self-consistent Calculation

     iteration #  1     ecut=    40.42 Ry     beta= 0.70
     Davidson diagonalization with overlap
     ethr =  1.00E-06,  avg # of iterations =  7.0

     total cpu time spent up to now is        5.2 secs

     total energy              =   -1654.34891687 Ry
     estimated scf accuracy    <       0.01265966 Ry

     iteration #  2     ecut=    40.42 Ry     beta= 0.70
     Davidson diagonalization with overlap
     ethr =  1.00E-05,  avg # of iterations = 11.0

     total cpu time spent up to now is        5.4 secs

     total energy              =   -1654.21454082 Ry
     estimated scf accuracy    <       9.04265495 Ry

     iteration #  3     ecut=    40.42 Ry     beta= 0.70
     Davidson diagonalization with overlap
     ethr =  1.00E-05,  avg # of iterations = 11.0

     total cpu time spent up to now is        5.6 secs

     total energy              =   -1654.32337377 Ry
     estimated scf accuracy    <       1.00978452 Ry

     iteration #  4     ecut=    40.42 Ry     beta= 0.70
     Davidson diagonalization with overlap
     ethr =  1.00E-05,  avg # of iterations =  4.0

     total cpu time spent up to now is        5.7 secs

     total energy              =   -1654.34451039 Ry
     estimated scf accuracy    <       0.28911674 Ry

     iteration #  5     ecut=    40.42 Ry     beta= 0.70
     Davidson diagonalization with overlap
     ethr =  1.00E-05,  avg # of iterations =  4.0

     total cpu time spent up to now is        5.8 secs

     total energy              =   -1654.35291760 Ry
     estimated scf accuracy    <       0.00603872 Ry

     iteration #  6     ecut=    40.42 Ry     beta= 0.70
     Davidson diagonalization with overlap
     ethr =  4.79E-06,  avg # of iterations =  2.0

     total cpu time spent up to now is        5.9 secs

     total energy              =   -1654.35326526 Ry
     estimated scf accuracy    <       0.00330677 Ry

     iteration #  7     ecut=    40.42 Ry     beta= 0.70
     Davidson diagonalization with overlap
     ethr =  2.62E-06,  avg # of iterations =  1.0

     total cpu time spent up to now is        6.0 secs

     total energy              =   -1654.35345599 Ry
     estimated scf accuracy    <       0.00109094 Ry

     iteration #  8     ecut=    40.42 Ry     beta= 0.70
     Davidson diagonalization with overlap
     ethr =  8.66E-07,  avg # of iterations =  2.0

     total cpu time spent up to now is        6.1 secs

     total energy              =   -1654.35349782 Ry
     estimated scf accuracy    <       0.00023390 Ry

     iteration #  9     ecut=    40.42 Ry     beta= 0.70
     Davidson diagonalization with overlap
     ethr =  1.86E-07,  avg # of iterations =  5.0

     total cpu time spent up to now is        6.2 secs

     total energy              =   -1654.35350875 Ry
     estimated scf accuracy    <       0.00024485 Ry

     iteration # 10     ecut=    40.42 Ry     beta= 0.70
     Davidson diagonalization with overlap
     ethr =  1.86E-07,  avg # of iterations =  1.0

     total cpu time spent up to now is        6.3 secs

     total energy              =   -1654.35350790 Ry
     estimated scf accuracy    <       0.00015750 Ry

     iteration # 11     ecut=    40.42 Ry     beta= 0.70
     Davidson diagonalization with overlap
     ethr =  1.25E-07,  avg # of iterations =  1.0

     total cpu time spent up to now is        6.4 secs

     total energy              =   -1654.35350485 Ry
     estimated scf accuracy    <       0.00006512 Ry

     iteration # 12     ecut=    40.42 Ry     beta= 0.70
     Davidson diagonalization with overlap
     ethr =  5.17E-08,  avg # of iterations =  2.0

     total cpu time spent up to now is        6.6 secs

     total energy              =   -1654.35350557 Ry
     estimated scf accuracy    <       0.00025774 Ry

     iteration # 13     ecut=    40.42 Ry     beta= 0.70
     Davidson diagonalization with overlap
     ethr =  5.17E-08,  avg # of iterations =  1.0

     total cpu time spent up to now is        6.7 secs

     total energy              =   -1654.35350898 Ry
     estimated scf accuracy    <       0.00000986 Ry

     iteration # 14     ecut=    40.42 Ry     beta= 0.70
     Davidson diagonalization with overlap
     ethr =  7.82E-09,  avg # of iterations =  1.0

     total cpu time spent up to now is        6.7 secs

     total energy              =   -1654.35350916 Ry
     estimated scf accuracy    <       0.00000809 Ry

     iteration # 15     ecut=    40.42 Ry     beta= 0.70
     Davidson diagonalization with overlap
     ethr =  6.42E-09,  avg # of iterations =  1.0

     total cpu time spent up to now is        6.8 secs

     total energy              =   -1654.35350905 Ry
     estimated scf accuracy    <       0.00000708 Ry

     iteration # 16     ecut=    40.42 Ry     beta= 0.70
     Davidson diagonalization with overlap
     ethr =  5.62E-09,  avg # of iterations =  1.0

     total cpu time spent up to now is        6.9 secs

     total energy              =   -1654.35350944 Ry
     estimated scf accuracy    <       0.00000100 Ry

     iteration # 17     ecut=    40.42 Ry     beta= 0.70
     Davidson diagonalization with overlap
     ethr =  7.97E-10,  avg # of iterations =  2.0

     total cpu time spent up to now is        7.0 secs

     End of self-consistent calculation

          k = 0.0000 0.0000 0.0000 (  5061 PWs)   bands (ev):

   -90.3882 -90.3873 -65.4132 -65.3675 -64.9966 -64.9966 -50.4694 -50.4231
   -50.4230 -50.3956 -50.2045 -50.1919 -34.9659 -34.6145 -34.3919 -34.3917
   -34.1223 -34.0832 -34.0796 -34.0300 -33.8257 -33.8253 -33.5741 -33.5738
    -1.0574   0.2960   0.3041   2.4054   2.4328   2.6441   6.4127   7.5046
     7.5221   8.0178   8.0416   8.9755   9.0578   9.1874   9.2101   9.2346
     9.3024  10.0306  10.0920  10.3216  10.3542  10.3684  10.4127  10.5031
    10.8955  11.0229  11.3403  11.4487  11.9731  11.9837  12.3509  12.5705
    12.8590  12.8839  13.0030  13.0342  13.3550  13.3708  13.5205  13.5331
    13.5855  13.5906  13.6339  13.9967  14.2496  14.4139  14.8829  15.7167
    15.7396  16.3915  16.6152  17.2746

     the Fermi energy is    13.4856 ev

!    total energy              =   -1654.35350948 Ry
     estimated scf accuracy    <       0.00000013 Ry
     smearing contrib. (-TS)   =      -0.04489256 Ry
     internal energy E=F+TS    =   -1654.30861693 Ry

     The total energy is F=E-TS. E is the sum of the following terms:
     one-electron contribution =   -1079.01807318 Ry
     hartree contribution      =     601.51167442 Ry
     xc contribution           =    -247.75208956 Ry
     ewald contribution        =    -929.05012860 Ry

     convergence has been achieved in  17 iterations

     Forces acting on atoms (cartesian axes, Ry/au):

     atom    1 type  1   force =     0.00000000   -0.02579646    0.00501008
     atom    2 type  2   force =     0.00000000    0.01061023    0.00715691
     atom    3 type  3   force =     0.00000000    0.01366078    0.02249376
     atom    4 type  1   force =     0.00000000    0.02086308   -0.02576756
     atom    5 type  1   force =     0.00000000   -0.02086308   -0.02576756
     atom    6 type  3   force =     0.00000000    0.02494235   -0.02421130
     atom    7 type  3   force =     0.00000000   -0.01366078    0.02249376
     atom    8 type  2   force =     0.00000000   -0.01061023    0.00715691
     atom    9 type  1   force =     0.00000000    0.02579646    0.00501008
     atom   10 type  3   force =     0.00000000    0.01635290    0.01531812
     atom   11 type  3   force =     0.00000000   -0.01635290    0.01531812
     atom   12 type  3   force =     0.00000000   -0.02494235   -0.02421130
     The non-local contrib.  to forces
     atom    1 type  1   force =     0.00000000   -0.02113346    0.00481361
     atom    2 type  2   force =     0.00000000    0.01796566   -0.00323501
     atom    3 type  3   force =     0.00000000   -0.00118599   -0.02261987
     atom    4 type  1   force =     0.00000000    0.06508844   -0.02089591
     atom    5 type  1   force =     0.00000000   -0.06508844   -0.02089591
     atom    6 type  3   force =     0.00000000   -0.00565516    0.03359506
     atom    7 type  3   force =     0.00000000    0.00118599   -0.02261987
     atom    8 type  2   force =     0.00000000   -0.01796566   -0.00323501
     atom    9 type  1   force =     0.00000000    0.02113346    0.00481361
     atom   10 type  3   force =     0.00000000   -0.03878713   -0.02857387
     atom   11 type  3   force =     0.00000000    0.03878713   -0.02857387
     atom   12 type  3   force =     0.00000000    0.00565516    0.03359506
     The ionic contribution  to forces
     atom    1 type  1   force =    -0.00000001   -2.84868342   -0.04940985
     atom    2 type  2   force =     0.00000000   -3.02913106    0.03889095
     atom    3 type  3   force =     0.00000016    0.21287837    0.27567125
     atom    4 type  1   force =     0.00000001    0.17439817    0.05443904
     atom    5 type  1   force =    -0.00000001   -0.17439817    0.05443904
     atom    6 type  3   force =     0.00000017   -1.82669961   -0.53072996
     atom    7 type  3   force =    -0.00000016   -0.21287837    0.27567125
     atom    8 type  2   force =    -0.00000000    3.02913106    0.03889095
     atom    9 type  1   force =     0.00000001    2.84868342   -0.04940985
     atom   10 type  3   force =     0.00000014    1.24234107    0.21113857
     atom   11 type  3   force =    -0.00000014   -1.24234107    0.21113857
     atom   12 type  3   force =    -0.00000017    1.82669961   -0.53072996
     The local contribution  to forces
     atom    1 type  1   force =    -0.00000000    2.84775965    0.04994339
     atom    2 type  2   force =    -0.00000000    3.02124660   -0.02906085
     atom    3 type  3   force =    -0.00000019   -0.19939199   -0.23722639
     atom    4 type  1   force =     0.00000000   -0.22182875   -0.06249829
     atom    5 type  1   force =     0.00000000    0.22182875   -0.06249829
     atom    6 type  3   force =    -0.00000019    1.85675159    0.48488974
     atom    7 type  3   force =     0.00000019    0.19939199   -0.23722639
     atom    8 type  2   force =     0.00000000   -3.02124660   -0.02906085
     atom    9 type  1   force =     0.00000000   -2.84775965    0.04994339
     atom   10 type  3   force =    -0.00000017   -1.19736956   -0.17747391
     atom   11 type  3   force =     0.00000017    1.19736956   -0.17747391
     atom   12 type  3   force =     0.00000019   -1.85675159    0.48488974
     The core correction contribution to forces
     atom    1 type  1   force =     0.00000104   -0.00335438   -0.00050633
     atom    2 type  2   force =     0.00000234    0.00120410    0.00059127
     atom    3 type  3   force =    -0.00000049    0.00133280    0.00659001
     atom    4 type  1   force =    -0.00001775    0.00313799    0.00311141
     atom    5 type  1   force =    -0.00002559   -0.00314855    0.00310769
     atom    6 type  3   force =    -0.00000024    0.00069696   -0.01206657
     atom    7 type  3   force =    -0.00000035   -0.00133301    0.00659066
     atom    8 type  2   force =     0.00000319   -0.00120651    0.00059477
     atom    9 type  1   force =     0.00000839    0.00335352   -0.00048568
     atom   10 type  3   force =     0.00000036    0.01004639    0.01013384
     atom   11 type  3   force =     0.00000089   -0.01004598    0.01013724
     atom   12 type  3   force =     0.00000002   -0.00069682   -0.01206571
     The Hubbard contrib.    to forces
     atom    1 type  1   force =     0.00000000    0.00000000    0.00000000
     atom    2 type  2   force =     0.00000000    0.00000000    0.00000000
     atom    3 type  3   force =     0.00000000    0.00000000    0.00000000
     atom    4 type  1   force =     0.00000000    0.00000000    0.00000000
     atom    5 type  1   force =     0.00000000    0.00000000    0.00000000
     atom    6 type  3   force =     0.00000000    0.00000000    0.00000000
     atom    7 type  3   force =     0.00000000    0.00000000    0.00000000
     atom    8 type  2   force =     0.00000000    0.00000000    0.00000000
     atom    9 type  1   force =     0.00000000    0.00000000    0.00000000
     atom   10 type  3   force =     0.00000000    0.00000000    0.00000000
     atom   11 type  3   force =     0.00000000    0.00000000    0.00000000
     atom   12 type  3   force =     0.00000000    0.00000000    0.00000000
     The SCF correction term to forces
     atom    1 type  1   force =    -0.00000001   -0.00038527    0.00006851
     atom    2 type  2   force =    -0.00000007   -0.00067624   -0.00012172
     atom    3 type  3   force =    -0.00000000    0.00002748   -0.00001198
     atom    4 type  1   force =    -0.00000000    0.00006195   -0.00001235
     atom    5 type  1   force =    -0.00000000   -0.00006194   -0.00001237
     atom    6 type  3   force =     0.00000001   -0.00015135    0.00000958
     atom    7 type  3   force =     0.00000001   -0.00002749   -0.00001198
     atom    8 type  2   force =     0.00000002    0.00067632   -0.00012154
     atom    9 type  1   force =     0.00000003    0.00038527    0.00006852
     atom   10 type  3   force =     0.00000001    0.00012232    0.00000138
     atom   11 type  3   force =    -0.00000000   -0.00012233    0.00000138
     atom   12 type  3   force =    -0.00000000    0.00015135    0.00000957

     Total force =     0.093344     Total SCF correction =     0.001156
     Energy error            =      8.1E-03 Ry
     Gradient error          =      2.6E-02 Ry/Bohr

     number of scf cycles    =   3
     number of bfgs steps    =   2

     energy             old  =   -1654.3453784204 Ry
     energy             new  =   -1654.3535094831 Ry

     CASE: energy            _new < energy            _old

     new trust radius        =       0.0629112282 bohr
     new conv_thr            =       0.0000002580 Ry


ATOMIC_POSITIONS (angstrom)
Mn           -3.6458040500        6.2877828959        0.0160143477
Ni           -3.6458040500        6.3284380088        2.5378468157
As           -3.6458040682        8.4462141561        6.3690634479
Mn           -1.8229020250        3.1651536516       -0.0437914514
Mn           -1.8229020250        3.1495641974        2.4787415486
As           -1.8229020432        5.3012594315        6.2414987034
As           -1.8229020068        7.3405804665        3.8465304479
Ni           -0.0000000000       -0.0137201598        0.0153138157
Mn           -0.0000000000        0.0269349531        2.5385473477
As           -0.0000000182        2.1338510415        6.3208986366
As            0.0000000182        4.1808668075        3.7983656366
As            1.8229020432        1.0134584175        3.7189657034



     Writing config-only to output data dir ./tutorial.save/
     NEW-OLD atomic charge density approx. for the potential

     Check: negative core charge=   -0.000071

     total cpu time spent up to now is        7.3 secs

     Self-consistent Calculation

     iteration #  1     ecut=    40.42 Ry     beta= 0.70
     Davidson diagonalization with overlap
     ethr =  1.00E-06,  avg # of iterations =  8.0

     total cpu time spent up to now is        7.5 secs

     total energy              =   -1654.35845703 Ry
     estimated scf accuracy    <       0.02605110 Ry

     iteration #  2     ecut=    40.42 Ry     beta= 0.70
     Davidson diagonalization with overlap
     ethr =  2.07E-05,  avg # of iterations = 12.0

     total cpu time spent up to now is        7.7 secs

     total energy              =   -1654.16132433 Ry
     estimated scf accuracy    <      11.10472132 Ry

     iteration #  3     ecut=    40.42 Ry     beta= 0.70
     Davidson diagonalization with overlap
     ethr =  2.07E-05,  avg # of iterations = 12.0

     total cpu time spent up to now is        7.9 secs

     total energy              =   -1654.33042625 Ry
     estimated scf accuracy    <       1.27877823 Ry

     iteration #  4     ecut=    40.42 Ry     beta= 0.70
     Davidson diagonalization with overlap
     ethr =  2.07E-05,  avg # of iterations = 10.0

     total cpu time spent up to now is        8.0 secs

     total energy              =   -1654.34198025 Ry
     estimated scf accuracy    <       0.75307711 Ry

     iteration #  5     ecut=    40.42 Ry     beta= 0.70
     Davidson diagonalization with overlap
     ethr =  2.07E-05,  avg # of iterations =  5.0

     total cpu time spent up to now is        8.2 secs

     total energy              =   -1654.36485231 Ry
     estimated scf accuracy    <       0.00879758 Ry

     iteration #  6     ecut=    40.42 Ry     beta= 0.70
     Davidson diagonalization with overlap
     ethr =  6.98E-06,  avg # of iterations =  2.0

     total cpu time spent up to now is        8.3 secs

     total energy              =   -1654.36533508 Ry
     estimated scf accuracy    <       0.00535816 Ry

     iteration #  7     ecut=    40.42 Ry     beta= 0.70
     Davidson diagonalization with overlap
     ethr =  4.25E-06,  avg # of iterations =  1.0

     total cpu time spent up to now is        8.4 secs

     total energy              =   -1654.36562559 Ry
     estimated scf accuracy    <       0.00232462 Ry

     iteration #  8     ecut=    40.42 Ry     beta= 0.70
     Davidson diagonalization with overlap
     ethr =  1.84E-06,  avg # of iterations =  1.0

     total cpu time spent up to now is        8.5 secs

     total energy              =   -1654.36568211 Ry
     estimated scf accuracy    <       0.00044452 Ry

     iteration #  9     ecut=    40.42 Ry     beta= 0.70
     Davidson diagonalization with overlap
     ethr =  3.53E-07,  avg # of iterations =  2.0

     total cpu time spent up to now is        8.6 secs

     total energy              =   -1654.36570272 Ry
     estimated scf accuracy    <       0.00037136 Ry

     iteration # 10     ecut=    40.42 Ry     beta= 0.70
     Davidson diagonalization with overlap
     ethr =  2.95E-07,  avg # of iterations =  1.0

     total cpu time spent up to now is        8.6 secs

     total energy              =   -1654.36571183 Ry
     estimated scf accuracy    <       0.00020781 Ry

     iteration # 11     ecut=    40.42 Ry     beta= 0.70
     Davidson diagonalization with overlap
     ethr =  1.65E-07,  avg # of iterations =  1.0

     total cpu time spent up to now is        8.7 secs

     total energy              =   -1654.36570820 Ry
     estimated scf accuracy    <       0.00008211 Ry

     iteration # 12     ecut=    40.42 Ry     beta= 0.70
     Davidson diagonalization with overlap
     ethr =  6.52E-08,  avg # of iterations =  2.0

     total cpu time spent up to now is        8.8 secs

     total energy              =   -1654.36570780 Ry
     estimated scf accuracy    <       0.00036911 Ry

     iteration # 13     ecut=    40.42 Ry     beta= 0.70
     Davidson diagonalization with overlap
     ethr =  6.52E-08,  avg # of iterations =  1.0

     total cpu time spent up to now is        8.9 secs

     total energy              =   -1654.36571456 Ry
     estimated scf accuracy    <       0.00002405 Ry

     iteration # 14     ecut=    40.42 Ry     beta= 0.70
     Davidson diagonalization with overlap
     ethr =  1.91E-08,  avg # of iterations =  1.0

     total cpu time spent up to now is        9.0 secs

     total energy              =   -1654.36571496 Ry
     estimated scf accuracy    <       0.00000505 Ry

     iteration # 15     ecut=    40.42 Ry     beta= 0.70
     Davidson diagonalization with overlap
     ethr =  4.00E-09,  avg # of iterations =  2.0

     total cpu time spent up to now is        9.1 secs

     total energy              =   -1654.36571510 Ry
     estimated scf accuracy    <       0.00000335 Ry

     iteration # 16     ecut=    40.42 Ry     beta= 0.70
     Davidson diagonalization with overlap
     ethr =  2.66E-09,  avg # of iterations =  1.0

     total cpu time spent up to now is        9.2 secs

     End of self-consistent calculation

          k = 0.0000 0.0000 0.0000 (  5061 PWs)   bands (ev):

   -90.3657 -90.3648 -65.4123 -65.3665 -65.0136 -65.0136 -50.4330 -50.4091
   -50.3857 -50.3820 -50.1863 -50.1732 -34.9624 -34.6099 -34.3878 -34.3875
   -34.1219 -34.0865 -34.0792 -34.0344 -33.8590 -33.8585 -33.6014 -33.6012
    -1.0589   0.2981   0.3007   2.4036   2.4293   2.6495   6.4106   7.5375
     7.5504   7.9845   8.0222   8.9876   9.0645   9.1866   9.2046   9.2318
     9.2838  10.0353  10.0907  10.3433  10.3499  10.3827  10.3994  10.4974
    10.9197  11.0325  11.3360  11.4582  11.9783  11.9967  12.3630  12.5346
    12.8049  12.8751  12.9893  13.0187  13.3423  13.3488  13.4985  13.5212
    13.6151  13.6228  13.6443  14.0127  14.2202  14.4131  14.8938  15.7222
    15.7693  16.3567  16.6513  17.2639

     the Fermi energy is    13.4843 ev

!    total energy              =   -1654.36571512 Ry
     estimated scf accuracy    <       0.00000022 Ry
     smearing contrib. (-TS)   =      -0.04149515 Ry
     internal energy E=F+TS    =   -1654.32421997 Ry

     The total energy is F=E-TS. E is the sum of the following terms:
     one-electron contribution =   -1078.89796745 Ry
     hartree contribution      =     601.45327361 Ry
     xc contribution           =    -247.76738475 Ry
     ewald contribution        =    -929.11214138 Ry

     convergence has been achieved in  16 iterations

     Forces acting on atoms (cartesian axes, Ry/au):

     atom    1 type  1   force =     0.00000000   -0.03461327   -0.00006444
     atom    2 type  2   force =     0.00000000    0.01370175    0.00636771
     atom    3 type  3   force =     0.00000000    0.01263710    0.01653254
     atom    4 type  1   force =    -0.00000000    0.03505031   -0.02713984
     atom    5 type  1   force =    -0.00000000   -0.03505031   -0.02713984
     atom    6 type  3   force =    -0.00000000    0.02710258   -0.01667477
     atom    7 type  3   force =     0.00000000   -0.01263710    0.01653254
     atom    8 type  2   force =     0.00000000   -0.01370175    0.00636771
     atom    9 type  1   force =     0.00000000    0.03461327   -0.00006444
     atom   10 type  3   force =     0.00000000    0.01641684    0.02097880
     atom   11 type  3   force =     0.00000000   -0.01641684    0.02097880
     atom   12 type  3   force =    -0.00000000   -0.02710258   -0.01667477
     The non-local contrib.  to forces
     atom    1 type  1   force =     0.00000000   -0.03181678    0.01188177
     atom    2 type  2   force =     0.00000000    0.00853585   -0.00298533
     atom    3 type  3   force =     0.00000000   -0.00609211   -0.02825369
     atom    4 type  1   force =     0.00000000    0.07955015   -0.03576302
     atom    5 type  1   force =     0.00000000   -0.07955015   -0.03576302
     atom    6 type  3   force =     0.00000000   -0.01150655    0.03942726
     atom    7 type  3   force =     0.00000000    0.00609211   -0.02825369
     atom    8 type  2   force =     0.00000000   -0.00853585   -0.00298533
     atom    9 type  1   force =     0.00000000    0.03181678    0.01188177
     atom   10 type  3   force =     0.00000000   -0.04260080   -0.02986306
     atom   11 type  3   force =     0.00000000    0.04260080   -0.02986306
     atom   12 type  3   force =     0.00000000    0.01150655    0.03942726
     The ionic contribution  to forces
     atom    1 type  1   force =    -0.00000001   -2.64828638   -0.07866984
     atom    2 type  2   force =     0.00000001   -3.02113677    0.04993333
     atom    3 type  3   force =     0.00000016    0.12000069    0.17548891
     atom    4 type  1   force =     0.00000002   -0.15627864    0.10562185
     atom    5 type  1   force =    -0.00000002    0.15627864    0.10562185
     atom    6 type  3   force =     0.00000017   -1.92483107   -0.25709105
     atom    7 type  3   force =    -0.00000016   -0.12000069    0.17548891
     atom    8 type  2   force =    -0.00000001    3.02113677    0.04993333
     atom    9 type  1   force =     0.00000001    2.64828638   -0.07866984
     atom   10 type  3   force =     0.00000015    1.13738658    0.00471678
     atom   11 type  3   force =    -0.00000015   -1.13738658    0.00471678
     atom   12 type  3   force =    -0.00000017    1.92483107   -0.25709105
     The local contribution  to forces
     atom    1 type  1   force =    -0.00000000    2.64899203    0.06804310
     atom    2 type  2   force =    -0.00000000    3.02431307   -0.04175594
     atom    3 type  3   force =    -0.00000019   -0.10486891   -0.13956443
     atom    4 type  1   force =     0.00000000    0.10928175   -0.10259462
     atom    5 type  1   force =     0.00000000   -0.10928175   -0.10259462
     atom    6 type  3   force =    -0.00000020    1.95943665    0.21647936
     atom    7 type  3   force =     0.00000019    0.10486891   -0.13956443
     atom    8 type  2   force =     0.00000000   -3.02431307   -0.04175594
     atom    9 type  1   force =     0.00000000   -2.64899203    0.06804310
     atom   10 type  3   force =    -0.00000017   -1.09013006    0.03323389
     atom   11 type  3   force =     0.00000017    1.09013006    0.03323389
     atom   12 type  3   force =     0.00000020   -1.95943665    0.21647936
     The core correction contribution to forces
     atom    1 type  1   force =     0.00000387   -0.00354455   -0.00140555
     atom    2 type  2   force =     0.00000311    0.00188387    0.00090516
     atom    3 type  3   force =    -0.00000036    0.00358816    0.00865414
     atom    4 type  1   force =    -0.00001452    0.00232121    0.00544604
     atom    5 type  1   force =    -0.00002132   -0.00233344    0.00544750
     atom    6 type  3   force =    -0.00000006    0.00390535   -0.01548673
     atom    7 type  3   force =    -0.00000036   -0.00358849    0.00865278
     atom    8 type  2   force =     0.00000456   -0.00188827    0.00090913
     atom    9 type  1   force =     0.00000967    0.00354967   -0.00137783
     atom   10 type  3   force =     0.00000024    0.01184841    0.01267094
     atom   11 type  3   force =     0.00000084   -0.01184796    0.01267412
     atom   12 type  3   force =    -0.00000001   -0.00390520   -0.01548776
     The Hubbard contrib.    to forces
     atom    1 type  1   force =     0.00000000    0.00000000    0.00000000
     atom    2 type  2   force =     0.00000000    0.00000000    0.00000000
     atom    3 type  3   force =     0.00000000    0.00000000    0.00000000
     atom    4 type  1   force =     0.00000000    0.00000000    0.00000000
     atom    5 type  1   force =     0.00000000    0.00000000    0.00000000
     atom    6 type  3   force =     0.00000000    0.00000000    0.00000000
     atom    7 type  3   force =     0.00000000    0.00000000    0.00000000
     atom    8 type  2   force =     0.00000000    0.00000000    0.00000000
     atom    9 type  1   force =     0.00000000    0.00000000    0.00000000
     atom   10 type  3   force =     0.00000000    0.00000000    0.00000000
     atom   11 type  3   force =     0.00000000    0.00000000    0.00000000
     atom   12 type  3   force =     0.00000000    0.00000000    0.00000000
     The SCF correction term to forces
     atom    1 type  1   force =    -0.00000000    0.00004496   -0.00006930
     atom    2 type  2   force =    -0.00000007    0.00010354    0.00012692
     atom    3 type  3   force =    -0.00000000    0.00000911    0.00006677
     atom    4 type  1   force =    -0.00000001    0.00016973    0.00000765
     atom    5 type  1   force =     0.00000000   -0.00016972    0.00000765
     atom    6 type  3   force =    -0.00000000    0.00009828   -0.00014462
     atom    7 type  3   force =    -0.00000000   -0.00000911    0.00006677
     atom    8 type  2   force =    -0.00000003   -0.00010350    0.00012704
     atom    9 type  1   force =     0.00000002   -0.00004496   -0.00006930
     atom   10 type  3   force =     0.00000000   -0.00008706    0.00007714
     atom   11 type  3   force =    -0.00000000    0.00008706    0.00007714
     atom   12 type  3   force =     0.00000000   -0.00009828   -0.00014462

     Total force =     0.105325     Total SCF correction =     0.000472
     Energy error            =      1.2E-02 Ry
     Gradient error          =      3.5E-02 Ry/Bohr

     number of scf cycles    =   4
     number of bfgs steps    =   3

     energy             old  =   -1654.3535094831 Ry
     energy             new  =   -1654.3657151191 Ry

     CASE: energy            _new < energy            _old

     new trust radius        =       0.0943668423 bohr
     new conv_thr            =       0.0000003505 Ry


ATOMIC_POSITIONS (angstrom)
Mn           -3.6458040500        6.2679358785        0.0249110785
Ni           -3.6458040500        6.3385550822        2.5480778929
As           -3.6458040682        8.4637048223        6.4111710080
Mn           -1.8229020250        3.1736722708       -0.0734518457
Mn           -1.8229020250        3.1410455782        2.4490811543
As           -1.8229020432        5.3275804486        6.1990618527
As           -1.8229020068        7.3230898003        3.8886380080
Ni           -0.0000000000       -0.0238372332        0.0255448929
Mn           -0.0000000000        0.0467819705        2.5474440785
As           -0.0000000182        2.1531292102        6.3317605136
As            0.0000000182        4.1615886388        3.8092275136
As            1.8229020432        0.9871374004        3.6765288527



     Writing config-only to output data dir ./tutorial.save/
     NEW-OLD atomic charge density approx. for the potential

     Check: negative core charge=   -0.000070

     total cpu time spent up to now is        9.4 secs

     Self-consistent Calculation

     iteration #  1     ecut=    40.42 Ry     beta= 0.70
     Davidson diagonalization with overlap
     ethr =  1.00E-06,  avg # of iterations =  9.0

     total cpu time spent up to now is        9.7 secs

     total energy              =   -1654.36425853 Ry
     estimated scf accuracy    <       0.06532161 Ry

     iteration #  2     ecut=    40.42 Ry     beta= 0.70
     Davidson diagonalization with overlap
     ethr =  5.18E-05,  avg # of iterations =  9.0

     total cpu time spent up to now is        9.8 secs

     total energy              =   -1653.94463765 Ry
     estimated scf accuracy    <      20.33851101 Ry

     iteration #  3     ecut=    40.42 Ry     beta= 0.70
     Davidson diagonalization with overlap
     ethr =  5.18E-05,  avg # of iterations = 12.0

     total cpu time spent up to now is       10.0 secs

     total energy              =   -1654.32971844 Ry
     estimated scf accuracy    <       1.76045835 Ry

     iteration #  4     ecut=    40.42 Ry     beta= 0.70
     Davidson diagonalization with overlap
     ethr =  5.18E-05,  avg # of iterations =  5.0

     total cpu time spent up to now is       10.2 secs

     total energy              =   -1654.33416313 Ry
     estimated scf accuracy    <       1.40710542 Ry

     iteration #  5     ecut=    40.42 Ry     beta= 0.70
     Davidson diagonalization with overlap
     ethr =  5.18E-05,  avg # of iterations =  4.0

     total cpu time spent up to now is       10.3 secs

     total energy              =   -1654.38154199 Ry
     estimated scf accuracy    <       0.01393342 Ry

     iteration #  6     ecut=    40.42 Ry     beta= 0.70
     Davidson diagonalization with overlap
     ethr =  1.11E-05,  avg # of iterations =  2.0

     total cpu time spent up to now is       10.4 secs

     total energy              =   -1654.38213613 Ry
     estimated scf accuracy    <       0.00851345 Ry

     iteration #  7     ecut=    40.42 Ry     beta= 0.70
     Davidson diagonalization with overlap
     ethr =  6.76E-06,  avg # of iterations =  1.0

     total cpu time spent up to now is       10.5 secs

     total energy              =   -1654.38251259 Ry
     estimated scf accuracy    <       0.00622169 Ry

     iteration #  8     ecut=    40.42 Ry     beta= 0.70
     Davidson diagonalization with overlap
     ethr =  4.94E-06,  avg # of iterations =  1.0

     total cpu time spent up to now is       10.6 secs

     total energy              =   -1654.38264336 Ry
     estimated scf accuracy    <       0.00198981 Ry

     iteration #  9     ecut=    40.42 Ry     beta= 0.70
     Davidson diagonalization with overlap
     ethr =  1.58E-06,  avg # of iterations =  1.0

     total cpu time spent up to now is       10.7 secs

     total energy              =   -1654.38266507 Ry
     estimated scf accuracy    <       0.00087179 Ry

     iteration # 10     ecut=    40.42 Ry     beta= 0.70
     Davidson diagonalization with overlap
     ethr =  6.92E-07,  avg # of iterations =  1.0

     total cpu time spent up to now is       10.7 secs

     total energy              =   -1654.38271576 Ry
     estimated scf accuracy    <       0.00027081 Ry

     iteration # 11     ecut=    40.42 Ry     beta= 0.70
     Davidson diagonalization with overlap
     ethr =  2.15E-07,  avg # of iterations =  2.0

     total cpu time spent up to now is       10.8 secs

     total energy              =   -1654.38271153 Ry
     estimated scf accuracy    <       0.00019690 Ry

     iteration # 12     ecut=    40.42 Ry     beta= 0.70
     Davidson diagonalization with overlap
     ethr =  1.56E-07,  avg # of iterations =  2.0

     total cpu time spent up to now is       10.9 secs

     total energy              =   -1654.38270816 Ry
     estimated scf accuracy    <       0.00045274 Ry

     iteration # 13     ecut=    40.42 Ry     beta= 0.70
     Davidson diagonalization with overlap
     ethr =  1.56E-07,  avg # of iterations =  1.0

     total cpu time spent up to now is       11.0 secs

     total energy              =   -1654.38271485 Ry
     estimated scf accuracy    <       0.00013134 Ry

     iteration # 14     ecut=    40.42 Ry     beta= 0.70
     Davidson diagonalization with overlap
     ethr =  1.04E-07,  avg # of iterations =  2.0

     total cpu time spent up to now is       11.1 secs

     total energy              =   -1654.38270994 Ry
     estimated scf accuracy    <       0.00021605 Ry

     iteration # 15     ecut=    40.42 Ry     beta= 0.70
     Davidson diagonalization with overlap
     ethr =  1.04E-07,  avg # of iterations =  1.0

     total cpu time spent up to now is       11.2 secs

     total energy              =   -1654.38272081 Ry
     estimated scf accuracy    <       0.00001253 Ry

     iteration # 16     ecut=    40.42 Ry     beta= 0.70
     Davidson diagonalization with overlap
     ethr =  9.94E-09,  avg # of iterations =  2.0

     total cpu time spent up to now is       11.3 secs

     total energy              =   -1654.38272100 Ry
     estimated scf accuracy    <       0.00000224 Ry

     iteration # 17     ecut=    40.42 Ry     beta= 0.70
     Davidson diagonalization with overlap
     ethr =  1.78E-09,  avg # of iterations =  3.0

     total cpu time spent up to now is       11.4 secs

     total energy              =   -1654.38272109 Ry
     estimated scf accuracy    <       0.00000490 Ry

     iteration # 18     ecut=    40.42 Ry     beta= 0.70
     Davidson diagonalization with overlap
     ethr =  1.78E-09,  avg # of iterations =  2.0

     total cpu time spent up to now is       11.5 secs

     total energy              =   -1654.38272136 Ry
     estimated scf accuracy    <       0.00000060 Ry

     iteration # 19     ecut=    40.42 Ry     beta= 0.70
     Davidson diagonalization with overlap
     ethr =  4.73E-10,  avg # of iterations =  2.0

     total cpu time spent up to now is       11.6 secs

     total energy              =   -1654.38272137 Ry
     estimated scf accuracy    <       0.00000055 Ry

     iteration # 20     ecut=    40.42 Ry     beta= 0.70
     Davidson diagonalization with overlap
     ethr =  4.34E-10,  avg # of iterations =  1.0

     total cpu time spent up to now is       11.7 secs

     total energy              =   -1654.38272138 Ry
     estimated scf accuracy    <       0.00000049 Ry

     iteration # 21     ecut=    40.42 Ry     beta= 0.70
     Davidson diagonalization with overlap
     ethr =  3.89E-10,  avg # of iterations =  2.0

     total cpu time spent up to now is       11.8 secs

     End of self-consistent calculation

          k = 0.0000 0.0000 0.0000 (  5061 PWs)   bands (ev):

   -90.3419 -90.3409 -65.4198 -65.3741 -65.0560 -65.0560 -50.3982 -50.3874
   -50.3716 -50.3391 -50.1683 -50.1546 -34.9631 -34.6083 -34.3989 -34.3986
   -34.1337 -34.0998 -34.0908 -34.0506 -33.9203 -33.9198 -33.6640 -33.6637
    -1.0687   0.2804   0.2971   2.4055   2.4193   2.6669   6.4108   7.5720
     7.5767   7.9345   8.0049   9.0005   9.0580   9.1872   9.2019   9.2142
     9.2454  10.0369  10.0566  10.2588  10.3569  10.3972  10.4651  10.5082
    10.9469  11.0430  11.3244  11.4666  11.9598  12.0294  12.3723  12.4559
    12.7194  12.8543  12.9627  12.9817  13.2765  13.3280  13.4480  13.5097
    13.6517  13.6556  13.6637  14.0619  14.1720  14.4104  14.9057  15.7320
    15.8267  16.3050  16.7153  17.1664

     the Fermi energy is    13.4711 ev

!    total energy              =   -1654.38272134 Ry
     estimated scf accuracy    <       0.00000020 Ry
     smearing contrib. (-TS)   =      -0.03489030 Ry
     internal energy E=F+TS    =   -1654.34783105 Ry

     The total energy is F=E-TS. E is the sum of the following terms:
     one-electron contribution =   -1078.95830993 Ry
     hartree contribution      =     601.46164589 Ry
     xc contribution           =    -247.80070011 Ry
     ewald contribution        =    -929.05046690 Ry

     convergence has been achieved in  21 iterations

     Forces acting on atoms (cartesian axes, Ry/au):

     atom    1 type  1   force =     0.00000000   -0.04280584   -0.01037499
     atom    2 type  2   force =     0.00000000    0.01815598    0.00480280
     atom    3 type  3   force =     0.00000000    0.00740844    0.00919010
     atom    4 type  1   force =     0.00000000    0.04948848   -0.02673281
     atom    5 type  1   force =     0.00000000   -0.04948848   -0.02673281
     atom    6 type  3   force =     0.00000000    0.02361912   -0.00252066
     atom    7 type  3   force =     0.00000000   -0.00740844    0.00919010
     atom    8 type  2   force =     0.00000000   -0.01815598    0.00480280
     atom    9 type  1   force =     0.00000000    0.04280584   -0.01037499
     atom   10 type  3   force =     0.00000000    0.01185153    0.02563557
     atom   11 type  3   force =     0.00000000   -0.01185153    0.02563557
     atom   12 type  3   force =     0.00000000   -0.02361912   -0.00252066
     The non-local contrib.  to forces
     atom    1 type  1   force =     0.00000000   -0.04738675    0.02550766
     atom    2 type  2   force =     0.00000000   -0.00475729   -0.00333482
     atom    3 type  3   force =     0.00000000   -0.01437722   -0.03568525
     atom    4 type  1   force =    -0.00000000    0.10363710   -0.06100691
     atom    5 type  1   force =    -0.00000000   -0.10363710   -0.06100691
     atom    6 type  3   force =     0.00000000   -0.01782911    0.04806400
     atom    7 type  3   force =     0.00000000    0.01437722   -0.03568525
     atom    8 type  2   force =     0.00000000    0.00475729   -0.00333482
     atom    9 type  1   force =     0.00000000    0.04738675    0.02550766
     atom   10 type  3   force =     0.00000000   -0.04974557   -0.03334123
     atom   11 type  3   force =     0.00000000    0.04974557   -0.03334123
     atom   12 type  3   force =     0.00000000    0.01782911    0.04806400
     The ionic contribution  to forces
     atom    1 type  1   force =    -0.00000003   -2.35843820   -0.05247801
     atom    2 type  2   force =     0.00000001   -3.00495635   -0.01374722
     atom    3 type  3   force =     0.00000016   -0.02558401    0.01750664
     atom    4 type  1   force =     0.00000003   -0.66761586    0.19314759
     atom    5 type  1   force =    -0.00000003    0.66761586    0.19314759
     atom    6 type  3   force =     0.00000018   -2.06210900    0.17921327
     atom    7 type  3   force =    -0.00000016    0.02558401    0.01750664
     atom    8 type  2   force =    -0.00000001    3.00495635   -0.01374722
     atom    9 type  1   force =     0.00000003    2.35843820   -0.05247801
     atom   10 type  3   force =     0.00000015    0.98955343   -0.32364227
     atom   11 type  3   force =    -0.00000015   -0.98955343   -0.32364227
     atom   12 type  3   force =    -0.00000018    2.06210900    0.17921327
     The local contribution  to forces
     atom    1 type  1   force =    -0.00000000    2.36665265    0.01963042
     atom    2 type  2   force =    -0.00000000    3.02478879    0.02027364
     atom    3 type  3   force =    -0.00000020    0.04053613    0.01544789
     atom    4 type  1   force =    -0.00000000    0.61235232   -0.16820403
     atom    5 type  1   force =     0.00000000   -0.61235232   -0.16820403
     atom    6 type  3   force =    -0.00000021    2.09560685   -0.20912505
     atom    7 type  3   force =     0.00000020   -0.04053613    0.01544789
     atom    8 type  2   force =     0.00000000   -3.02478879    0.02027364
     atom    9 type  1   force =     0.00000000   -2.36665265    0.01963042
     atom   10 type  3   force =    -0.00000018   -0.94238081    0.36582182
     atom   11 type  3   force =     0.00000018    0.94238081    0.36582182
     atom   12 type  3   force =     0.00000021   -2.09560685   -0.20912505
     The core correction contribution to forces
     atom    1 type  1   force =     0.00000471   -0.00378999   -0.00284092
     atom    2 type  2   force =     0.00000185    0.00322171    0.00112025
     atom    3 type  3   force =    -0.00000074    0.00683010    0.01181323
     atom    4 type  1   force =     0.00001832    0.00103384    0.00923739
     atom    5 type  1   force =     0.00001023   -0.00102574    0.00923401
     atom    6 type  3   force =    -0.00000050    0.00792998   -0.02073274
     atom    7 type  3   force =     0.00000031   -0.00683066    0.01181551
     atom    8 type  2   force =     0.00000398   -0.00322606    0.00112329
     atom    9 type  1   force =     0.00000966    0.00380543   -0.00281108
     atom   10 type  3   force =     0.00000015    0.01445154    0.01668207
     atom   11 type  3   force =     0.00000069   -0.01445106    0.01668422
     atom   12 type  3   force =     0.00000090   -0.00792962   -0.02072898
     The Hubbard contrib.    to forces
     atom    1 type  1   force =     0.00000000    0.00000000    0.00000000
     atom    2 type  2   force =     0.00000000    0.00000000    0.00000000
     atom    3 type  3   force =     0.00000000    0.00000000    0.00000000
     atom    4 type  1   force =     0.00000000    0.00000000    0.00000000
     atom    5 type  1   force =     0.00000000    0.00000000    0.00000000
     atom    6 type  3   force =     0.00000000    0.00000000    0.00000000
[...]
     Davidson diagonalization with overlap
     ethr =  1.00E-02,  avg # of iterations =  8.0

     negative rho (up, down):  4.524E-02 0.000E+00

     total cpu time spent up to now is      142.2 secs

     total energy              =   -1647.75142613 Ry
     estimated scf accuracy    <     144.07191619 Ry

     iteration #  4     ecut=    40.42 Ry     beta= 0.70
     Davidson diagonalization with overlap
     ethr =  1.00E-02,  avg # of iterations =  4.0

     negative rho (up, down):  4.475E-02 0.000E+00

     total cpu time spent up to now is      142.3 secs

     total energy              =   -1653.41389594 Ry
     estimated scf accuracy    <      10.89982403 Ry

     iteration #  5     ecut=    40.42 Ry     beta= 0.70
     Davidson diagonalization with overlap
     ethr =  8.65E-03,  avg # of iterations =  5.0

     negative rho (up, down):  3.369E-02 0.000E+00

     total cpu time spent up to now is      142.4 secs

     total energy              =   -1653.83387111 Ry
     estimated scf accuracy    <       4.47118925 Ry

     iteration #  6     ecut=    40.42 Ry     beta= 0.70
     Davidson diagonalization with overlap
     ethr =  3.55E-03,  avg # of iterations =  9.0

     negative rho (up, down):  2.993E-02 0.000E+00

     total cpu time spent up to now is      142.6 secs

     total energy              =   -1653.49114715 Ry
     estimated scf accuracy    <      42.08979115 Ry

     iteration #  7     ecut=    40.42 Ry     beta= 0.70
     Davidson diagonalization with overlap
     ethr =  3.55E-03,  avg # of iterations =  2.0

     negative rho (up, down):  5.941E-02 0.000E+00

     total cpu time spent up to now is      142.7 secs

     total energy              =   -1654.53294248 Ry
     estimated scf accuracy    <      11.80530453 Ry

     iteration #  8     ecut=    40.42 Ry     beta= 0.70
     Davidson diagonalization with overlap
     ethr =  3.55E-03,  avg # of iterations =  2.0

     negative rho (up, down):  6.777E-02 0.000E+00

     total cpu time spent up to now is      142.8 secs

     total energy              =   -1654.42365144 Ry
     estimated scf accuracy    <      12.45344712 Ry

     iteration #  9     ecut=    40.42 Ry     beta= 0.70
     Davidson diagonalization with overlap
     ethr =  3.55E-03,  avg # of iterations =  2.0

     negative rho (up, down):  9.722E-02 0.000E+00

     total cpu time spent up to now is      142.9 secs

     total energy              =   -1654.29371261 Ry
     estimated scf accuracy    <       8.20169576 Ry

     iteration # 10     ecut=    40.42 Ry     beta= 0.70
     Davidson diagonalization with overlap
     ethr =  3.55E-03,  avg # of iterations =  2.0

     negative rho (up, down):  5.724E-02 0.000E+00

     total cpu time spent up to now is      143.0 secs

     total energy              =   -1654.06119612 Ry
     estimated scf accuracy    <      14.91075346 Ry

     iteration # 11     ecut=    40.42 Ry     beta= 0.70
     Davidson diagonalization with overlap
     ethr =  3.55E-03,  avg # of iterations =  2.0

     negative rho (up, down):  7.277E-02 0.000E+00

     total cpu time spent up to now is      143.1 secs

     total energy              =   -1654.57590656 Ry
     estimated scf accuracy    <       3.48769106 Ry

     iteration # 12     ecut=    40.42 Ry     beta= 0.70
     Davidson diagonalization with overlap
     ethr =  2.77E-03,  avg # of iterations =  2.0

     negative rho (up, down):  6.316E-02 0.000E+00

     total cpu time spent up to now is      143.2 secs

     total energy              =   -1654.70533354 Ry
     estimated scf accuracy    <       3.32528725 Ry

     iteration # 13     ecut=    40.42 Ry     beta= 0.70
     Davidson diagonalization with overlap
     ethr =  2.64E-03,  avg # of iterations =  2.0

     negative rho (up, down):  6.230E-02 0.000E+00

     total cpu time spent up to now is      143.3 secs

     total energy              =   -1654.82177786 Ry
     estimated scf accuracy    <       0.31903798 Ry

     iteration # 14     ecut=    40.42 Ry     beta= 0.70
     Davidson diagonalization with overlap
     ethr =  2.53E-04,  avg # of iterations =  2.0

     negative rho (up, down):  6.175E-02 0.000E+00

     total cpu time spent up to now is      143.4 secs

     total energy              =   -1654.80901752 Ry
     estimated scf accuracy    <       0.01822899 Ry

     iteration # 15     ecut=    40.42 Ry     beta= 0.70
     Davidson diagonalization with overlap
     ethr =  1.45E-05,  avg # of iterations =  2.0

     negative rho (up, down):  6.063E-02 0.000E+00

     total cpu time spent up to now is      143.5 secs

     total energy              =   -1654.81173974 Ry
     estimated scf accuracy    <       0.00190630 Ry

     iteration # 16     ecut=    40.42 Ry     beta= 0.70
     Davidson diagonalization with overlap
     ethr =  1.51E-06,  avg # of iterations =  7.0

     negative rho (up, down):  6.158E-02 0.000E+00

     total cpu time spent up to now is      143.7 secs

     total energy              =   -1654.81717042 Ry
     estimated scf accuracy    <       0.04217957 Ry

     iteration # 17     ecut=    40.42 Ry     beta= 0.70
     Davidson diagonalization with overlap
     ethr =  1.51E-06,  avg # of iterations =  4.0

     negative rho (up, down):  6.168E-02 0.000E+00

     total cpu time spent up to now is      143.8 secs

     total energy              =   -1654.81233739 Ry
     estimated scf accuracy    <       0.00331557 Ry

     iteration # 18     ecut=    40.42 Ry     beta= 0.70
     Davidson diagonalization with overlap
     ethr =  1.51E-06,  avg # of iterations =  2.0

     negative rho (up, down):  6.165E-02 0.000E+00

     total cpu time spent up to now is      143.9 secs

     total energy              =   -1654.81274076 Ry
     estimated scf accuracy    <       0.00200445 Ry

     iteration # 19     ecut=    40.42 Ry     beta= 0.70
     Davidson diagonalization with overlap
     ethr =  1.51E-06,  avg # of iterations =  1.0

     negative rho (up, down):  6.150E-02 0.000E+00

     total cpu time spent up to now is      144.0 secs

     total energy              =   -1654.81368377 Ry
     estimated scf accuracy    <       0.00053529 Ry

     iteration # 20     ecut=    40.42 Ry     beta= 0.70
     Davidson diagonalization with overlap
     ethr =  4.25E-07,  avg # of iterations =  2.0

     negative rho (up, down):  6.152E-02 0.000E+00

     total cpu time spent up to now is      144.1 secs

     total energy              =   -1654.81512462 Ry
     estimated scf accuracy    <       0.00013062 Ry

     iteration # 21     ecut=    40.42 Ry     beta= 0.70
     Davidson diagonalization with overlap
     ethr =  1.04E-07,  avg # of iterations =  1.0

     negative rho (up, down):  6.153E-02 0.000E+00

     total cpu time spent up to now is      144.2 secs

     total energy              =   -1654.81500312 Ry
     estimated scf accuracy    <       0.00008556 Ry

     iteration # 22     ecut=    40.42 Ry     beta= 0.70
     Davidson diagonalization with overlap
     ethr =  6.79E-08,  avg # of iterations =  1.0

     negative rho (up, down):  6.154E-02 0.000E+00

     total cpu time spent up to now is      144.3 secs

     total energy              =   -1654.81483993 Ry
     estimated scf accuracy    <       0.00000401 Ry

     iteration # 23     ecut=    40.42 Ry     beta= 0.70
     Davidson diagonalization with overlap
     ethr =  3.19E-09,  avg # of iterations =  5.0

     negative rho (up, down):  6.154E-02 0.000E+00

     total cpu time spent up to now is      144.4 secs

     total energy              =   -1654.81486940 Ry
     estimated scf accuracy    <       0.00000158 Ry

     iteration # 24     ecut=    40.42 Ry     beta= 0.70
     Davidson diagonalization with overlap
     ethr =  1.25E-09,  avg # of iterations =  2.0

     negative rho (up, down):  6.157E-02 0.000E+00

     total cpu time spent up to now is      144.5 secs

     End of self-consistent calculation

          k = 0.0000 0.0000 0.0000 (  5061 PWs)   bands (ev):

   -90.1015 -90.0728 -65.4690 -65.4239 -65.3132 -65.3132 -49.9819 -49.9275
   -49.9055 -49.8243 -49.6188 -49.5896 -34.7837 -34.4386 -34.4384 -34.4231
   -34.3679 -34.3672 -34.3451 -34.3022 -34.2694 -34.2259 -33.9974 -33.9973
    -1.1244   0.1107   0.3620   2.2890   2.4893   2.8111   6.6071   7.4889
     7.6908   7.9157   8.5621   8.8477   9.2197   9.3675   9.5248   9.5369
     9.6404  10.0765  10.1375  10.3571  10.4530  10.7540  10.8878  10.9475
    10.9916  11.2201  11.4457  11.5742  11.7171  11.7861  12.0858  12.1690
    12.2746  12.5217  12.7650  12.7696  12.7850  13.2137  13.4566  13.5320
    13.6081  13.6414  14.3277  14.6080  14.6246  14.7446  15.2348  15.6638
    16.2374  16.5802  17.1884  17.3037

     the Fermi energy is    13.4575 ev

!    total energy              =   -1654.81482768 Ry
     estimated scf accuracy    <       0.00000004 Ry
     smearing contrib. (-TS)   =      -0.02565919 Ry
     internal energy E=F+TS    =   -1654.78916849 Ry

     The total energy is F=E-TS. E is the sum of the following terms:
     one-electron contribution =   -1080.26324985 Ry
     hartree contribution      =     603.37997004 Ry
     xc contribution           =    -249.74209448 Ry
     ewald contribution        =    -928.16379421 Ry

     convergence has been achieved in  24 iterations

     negative rho (up, down):  6.157E-02 0.000E+00

     Forces acting on atoms (cartesian axes, Ry/au):

     atom    1 type  1   force =     0.00000000   -0.01477815    0.01899776
     atom    2 type  2   force =     0.00000000    0.02634854   -0.08868306
     atom    3 type  3   force =     0.00000000    0.04643292    0.00272203
     atom    4 type  1   force =     0.00000000    0.00744651    0.04805722
     atom    5 type  1   force =     0.00000000   -0.00744651    0.04805722
     atom    6 type  3   force =     0.00000000    0.00285026    0.03613723
     atom    7 type  3   force =     0.00000000   -0.04643292    0.00272203
     atom    8 type  2   force =     0.00000000   -0.02634854   -0.08868306
     atom    9 type  1   force =     0.00000000    0.01477815    0.01899776
     atom   10 type  3   force =     0.00000000    0.02503088   -0.01723119
     atom   11 type  3   force =     0.00000000   -0.02503088   -0.01723119
     atom   12 type  3   force =     0.00000000   -0.00285026    0.03613723
     The non-local contrib.  to forces
     atom    1 type  1   force =     0.00000000    0.17956451    0.06987666
     atom    2 type  2   force =     0.00000000    0.91057249   -0.53217786
     atom    3 type  3   force =     0.00000000    0.07285887   -0.09080015
     atom    4 type  1   force =     0.00000000    0.13260351   -0.16156323
     atom    5 type  1   force =     0.00000000   -0.13260351   -0.16156323
     atom    6 type  3   force =     0.00000000    0.00685157    0.01823727
     atom    7 type  3   force =     0.00000000   -0.07285887   -0.09080015
     atom    8 type  2   force =     0.00000000   -0.91057249   -0.53217786
     atom    9 type  1   force =     0.00000000   -0.17956451    0.06987666
     atom   10 type  3   force =     0.00000000   -0.02751454   -0.07280397
     atom   11 type  3   force =     0.00000000    0.02751454   -0.07280397
     atom   12 type  3   force =     0.00000000   -0.00685157    0.01823727
     The ionic contribution  to forces
     atom    1 type  1   force =    -0.00000000    0.80431759    6.09701962
     atom    2 type  2   force =     0.00000004    3.24348803   -5.45410439
     atom    3 type  3   force =     0.00000017   -0.92909077   -0.54770617
     atom    4 type  1   force =     0.00000007   -2.39101886    0.84217675
     atom    5 type  1   force =    -0.00000007    2.39101886    0.84217675
     atom    6 type  3   force =     0.00000014    1.02908977    1.94733238
     atom    7 type  3   force =    -0.00000017    0.92909077   -0.54770617
     atom    8 type  2   force =    -0.00000004   -3.24348803   -5.45410439
     atom    9 type  1   force =     0.00000000   -0.80431759    6.09701962
     atom   10 type  3   force =     0.00000018    0.34894084   -2.88471819
     atom   11 type  3   force =    -0.00000018   -0.34894084   -2.88471819
     atom   12 type  3   force =    -0.00000014   -1.02908977    1.94733238
     The local contribution  to forces
     atom    1 type  1   force =     0.00000000   -0.97461220   -6.15885906
     atom    2 type  2   force =    -0.00000000   -3.98224860    5.81161945
     atom    3 type  3   force =    -0.00000020    0.89788005    0.58746910
     atom    4 type  1   force =     0.00000000    2.25931157   -0.66861456
     atom    5 type  1   force =     0.00000000   -2.25931157   -0.66861456
     atom    6 type  3   force =    -0.00000017   -1.02329877   -1.92659905
     atom    7 type  3   force =     0.00000020   -0.89788005    0.58746910
     atom    8 type  2   force =    -0.00000000    3.98224860    5.81161945
     atom    9 type  1   force =    -0.00000000    0.97461220   -6.15885906
     atom   10 type  3   force =    -0.00000020   -0.29862367    2.87686297
     atom   11 type  3   force =     0.00000020    0.29862367    2.87686297
     atom   12 type  3   force =     0.00000017    1.02329877   -1.92659905
     The core correction contribution to forces
     atom    1 type  1   force =     0.00009565   -0.02424312   -0.00880035
     atom    2 type  2   force =    -0.00564501   -0.14514345    0.05557606
     atom    3 type  3   force =     0.00002595    0.00483561    0.03407003
     atom    4 type  1   force =     0.00002159    0.00651067    0.01633802
     atom    5 type  1   force =     0.00002226   -0.00657547    0.01637400
     atom    6 type  3   force =    -0.00001080   -0.00989527   -0.02252103
     atom    7 type  3   force =    -0.00000743   -0.00476508    0.03404476
     atom    8 type  2   force =     0.00101677    0.14568503    0.07729162
     atom    9 type  1   force =     0.00002414    0.02429774   -0.00886273
     atom   10 type  3   force =     0.00000595    0.00230209    0.04372083
     atom   11 type  3   force =    -0.00000077   -0.00230592    0.04373792
     atom   12 type  3   force =     0.00001016    0.00989266   -0.02248886
     The Hubbard contrib.    to forces
     atom    1 type  1   force =     0.00000000    0.00000000    0.00000000
     atom    2 type  2   force =     0.00000000    0.00000000    0.00000000
     atom    3 type  3   force =     0.00000000    0.00000000    0.00000000
     atom    4 type  1   force =     0.00000000    0.00000000    0.00000000
     atom    5 type  1   force =     0.00000000    0.00000000    0.00000000
     atom    6 type  3   force =     0.00000000    0.00000000    0.00000000
     atom    7 type  3   force =     0.00000000    0.00000000    0.00000000
     atom    8 type  2   force =     0.00000000    0.00000000    0.00000000
     atom    9 type  1   force =     0.00000000    0.00000000    0.00000000
     atom   10 type  3   force =     0.00000000    0.00000000    0.00000000
     atom   11 type  3   force =     0.00000000    0.00000000    0.00000000
     atom   12 type  3   force =     0.00000000    0.00000000    0.00000000
     The SCF correction term to forces
     atom    1 type  1   force =     0.00000002    0.00022238    0.00010385
     atom    2 type  2   force =    -0.00006321   -0.00007917   -0.00013778
     atom    3 type  3   force =     0.00000000   -0.00001565    0.00001385
     atom    4 type  1   force =    -0.00000001    0.00000722    0.00001406
     atom    5 type  1   force =     0.00000001   -0.00000722    0.00001405
     atom    6 type  3   force =     0.00000005    0.00010168   -0.00001664
     atom    7 type  3   force =    -0.00000017    0.00001549    0.00001346
     atom    8 type  2   force =     0.00004593    0.00001910   -0.00014680
     atom    9 type  1   force =     0.00000003   -0.00022240    0.00010391
     atom   10 type  3   force =     0.00000005   -0.00007574    0.00001042
     atom   11 type  3   force =     0.00000002    0.00007579    0.00001041
     atom   12 type  3   force =     0.00000004   -0.00010164   -0.00001664

     Total force =     0.178349     Total SCF correction =     0.000456
     Energy error            =      4.3E-02 Ry
     Gradient error          =      8.9E-02 Ry/Bohr

     number of scf cycles    =  50
     number of bfgs steps    =  28

     energy             old  =   -1654.8583242194 Ry
     energy             new  =   -1654.8148276771 Ry

     CASE: energy            _new > energy            _old

     new trust radius        =       0.0298530344 bohr

     The maximum number of steps has been reached.

     End of BFGS Geometry Optimization

ATOMIC_POSITIONS (angstrom)
Mn           -3.6458040500        5.8663351817       -0.1612037388
Ni           -3.6458040500        6.5727494915        2.5800005740
As           -3.6458040682        8.6675558833        6.8662819865
Mn           -1.8229020250        3.2117159927       -0.3252217437
Mn           -1.8229020250        3.1030018563        2.1973112563
As           -1.8229020432        5.2497484257        6.2735997832
As           -1.8229020068        7.1192387393        4.3437489865
Ni            0.0000000000       -0.2580316425        0.0574675740
Mn            0.0000000000        0.4483826673        2.3613292612
As           -0.0000000182        2.2690337370        6.2080736388
As            0.0000000182        4.0456841120        3.6855406388
As            1.8229020432        1.0649694233        3.7510667832



     Writing config-only to output data dir ./tutorial.save/
     NEW-OLD atomic charge density approx. for the potential

     Check: negative core charge=   -0.000068

     negative rho (up, down):  2.671E-02 0.000E+00

     Writing all to output data dir ./tutorial.save/
 
     init_run     :      0.20s CPU      0.22s WALL (       1 calls)
     electrons    :    121.63s CPU    131.24s WALL (      50 calls)
     update_pot   :      4.47s CPU      4.51s WALL (      50 calls)
     forces       :      4.21s CPU      4.45s WALL (      50 calls)

     Called by init_run:
     wfcinit      :      0.03s CPU      0.04s WALL (       1 calls)
     potinit      :      0.03s CPU      0.03s WALL (       1 calls)
     hinit0       :      0.11s CPU      0.12s WALL (       1 calls)

     Called by electrons:
     c_bands      :     83.47s CPU     86.80s WALL (    1102 calls)
     sum_band     :     22.22s CPU     24.47s WALL (    1102 calls)
     v_of_rho     :      3.97s CPU      4.26s WALL (    1147 calls)
     newd         :     11.68s CPU     11.74s WALL (    1147 calls)
     mix_rho      :      0.64s CPU      0.65s WALL (    1102 calls)

     Called by c_bands:
     init_us_2    :      0.31s CPU      0.36s WALL (    2205 calls)
     init_us_2:cp :      0.30s CPU      0.36s WALL (    2205 calls)
     cegterg      :     81.54s CPU     84.55s WALL (    1102 calls)

     Called by *egterg:
     cdiaghg      :     24.50s CPU     25.65s WALL (    4333 calls)
     h_psi        :     46.99s CPU     48.55s WALL (    4389 calls)
     s_psi        :      1.55s CPU      1.56s WALL (    4389 calls)
     g_psi        :      0.16s CPU      0.16s WALL (    3286 calls)

     Called by h_psi:
     h_psi:calbec :      2.40s CPU      2.55s WALL (    4389 calls)
     vloc_psi     :     42.81s CPU     44.20s WALL (    4389 calls)
     add_vuspsi   :      1.60s CPU      1.63s WALL (    4389 calls)

     General routines
     calbec       :      3.38s CPU      3.59s WALL (    5691 calls)
     fft          :      2.31s CPU      2.35s WALL (   13224 calls)
     ffts         :      0.21s CPU      0.22s WALL (    1102 calls)
     fftw         :     46.68s CPU     48.25s WALL (  500520 calls)
 
     Parallel routines
 
     PWSCF        :   2m11.66s CPU   2m24.88s WALL

 
   This run was terminated on:  15:17: 4  30May2023            

=------------------------------------------------------------------------------=
   JOB DONE.
=------------------------------------------------------------------------------=
