
     Program PWSCF v.7.2 starts on 30May2023 at 15: 1: 3 

     This program is part of the open-source Quantum ESPRESSO suite
     for quantum simulation of materials; please cite
         "P. Giannozzi et al., J. Phys.:Condens. Matter 21 395502 (2009);
         "P. Giannozzi et al., J. Phys.:Condens. Matter 29 465901 (2017);
         "P. Giannozzi et al., J. Chem. Phys. 152 154105 (2020);
          URL http://www.quantum-espresso.org", 
     in publications or presentations arising from this work. More details at
     http://www.quantum-espresso.org/quote

     Parallel version (MPI), running on    28 processors

     MPI processes distributed on     1 nodes
     36782 MiB available memory on the printing compute node when the environment starts
 
     Waiting for input...
     Reading input from standard input
Warning: card &CELL ignored
Warning: card / ignored

     Current dimensions of program PWSCF are:
     Max number of different atomic species (ntypx) = 10
     Max number of k-points (npk) =  40000
     Max angular momentum in pseudopotentials (lmaxx) =  4
     file Mn.pbesol-spn-rrkjus_psl.0.3.1.UPF: wavefunction(s)  3D renormalized
     Message from routine setup:
     using ibrav=0 with symmetry is DISCOURAGED, use correct ibrav instead
 
     R & G space division:  proc/nbgrp/npool/nimage =      28
     Subspace diagonalization in iterative solution of the eigenvalue problem:
     a serial algorithm will be used

 
     Parallelization info
     --------------------
     sticks:   dense  smooth     PW     G-vecs:    dense   smooth      PW
     Min          87      87     21                 1940     1940     239
     Max          88      88     22                 1943     1943     242
     Sum        2461    2461    611                54385    54385    6739
 
     Using Slab Decomposition
 


     bravais-lattice index     =            0
     lattice parameter (alat)  =      11.7626  a.u.
     unit-cell volume          =    1567.6197 (a.u.)^3
     number of atoms/cell      =           16
     number of atomic types    =            3
     number of electrons       =       181.00
     number of Kohn-Sham states=          109
     kinetic-energy cutoff     =      40.4242  Ry
     charge density cutoff     =     161.6969  Ry
     scf convergence threshold =      1.0E-06
     mixing beta               =       0.7000
     number of iterations used =            8  plain     mixing
     energy convergence thresh.=      1.0E-04
     force convergence thresh. =      1.0E-03
     Exchange-correlation= PBESOL
                           (   1   4  10   8   0   0   0)
     nstep                     =           50


     celldm(1)=  11.762627  celldm(2)=   0.000000  celldm(3)=   0.000000
     celldm(4)=   0.000000  celldm(5)=   0.000000  celldm(6)=   0.000000

     crystal axes: (cart. coord. in units of alat)
               a(1) = (   0.585717   0.000000   0.810516 )  
               a(2) = (  -0.585717   1.014492   0.810516 )  
               a(3) = (   0.000000   0.000000   1.621031 )  

     reciprocal axes: (cart. coord. in units 2 pi/alat)
               b(1) = (  1.707309  0.985715  0.000000 )  
               b(2) = (  0.000000  0.985715  0.000000 )  
               b(3) = ( -0.853655 -0.985715  0.616891 )  


     PseudoPot. # 1 for Ni read from file:
     /home/valmzztt/Intermetallic_alloys/pseudos/Ni.pbesol-spn-rrkjus_psl.1.0.0.UPF
     MD5 check sum: 6fc0a587bf949a08f2faed986b854013
     Pseudo is Ultrasoft + core correction, Zval = 18.0
     Generated using &quot;atomic&quot; code by A. Dal Corso  v.6.3
     Using radial grid of 1195 points,  6 beta functions with: 
                l(1) =   0
                l(2) =   0
                l(3) =   1
                l(4) =   1
                l(5) =   2
                l(6) =   2
     Q(r) pseudized with 0 coefficients 


     PseudoPot. # 2 for As read from file:
     /home/valmzztt/Intermetallic_alloys/pseudos/As.pbesol-n-rrkjus_psl.1.0.0.UPF
     MD5 check sum: 2fb13bbab3d0b4e108be5408f3d6fe7c
     Pseudo is Ultrasoft + core correction, Zval =  5.0
     Generated using &quot;atomic&quot; code by A. Dal Corso  v.6.3
     Using radial grid of 1209 points,  4 beta functions with: 
                l(1) =   0
                l(2) =   0
                l(3) =   1
                l(4) =   1
     Q(r) pseudized with 0 coefficients 


     PseudoPot. # 3 for Mn read from file:
     /home/valmzztt/Intermetallic_alloys/pseudos/Mn.pbesol-spn-rrkjus_psl.0.3.1.UPF
     MD5 check sum: 61e28eea34dae291f95a967fe31318f1
     Pseudo is Ultrasoft + core correction, Zval = 15.0
     Generated using &quot;atomic&quot; code by A. Dal Corso  v.6.3
     Using radial grid of 1187 points,  6 beta functions with: 
                l(1) =   0
                l(2) =   0
                l(3) =   1
                l(4) =   1
                l(5) =   2
                l(6) =   2
     Q(r) pseudized with 0 coefficients 


     atomic species   valence    mass     pseudopotential
        Ni            18.00    58.69340     Ni( 1.00)
        As             5.00    74.92159     As( 1.00)
        Mn            15.00    54.93804     Mn( 1.00)

      4 Sym. Ops., with inversion, found ( 2 have fractional translation)



   Cartesian axes

     site n.     atom                  positions (alat units)
         1           Ni  tau(   1) = (  -0.2928585   0.5072458   0.4052578  )
         2           Ni  tau(   2) = (  -0.2928585   0.5072458   0.8105156  )
         3           Ni  tau(   3) = (  -0.2928585   0.5072458   1.2157734  )
         4           Ni  tau(   4) = (  -0.2928585   0.5072458   1.6210312  )
         5           As  tau(   5) = (  -0.2928585   0.8454097   1.0131445  )
         6           As  tau(   6) = (  -0.2928585   0.8454097   1.8236601  )
         7           Ni  tau(   7) = (   0.0000000   0.0000000   0.0000000  )
         8           Ni  tau(   8) = (   0.0000000   0.0000000   0.4052578  )
         9           Ni  tau(   9) = (   0.0000000   0.0000000   0.8105156  )
        10           Mn  tau(  10) = (   0.0000000   0.0000000   1.2157734  )
        11           As  tau(  11) = (  -0.0000000   0.3381639   1.0131445  )
        12           As  tau(  12) = (  -0.0000000   0.3381639   1.8236601  )
        13           As  tau(  13) = (   0.0000000   0.6763278   1.4184023  )
        14           As  tau(  14) = (   0.0000000   0.6763278   2.2289179  )
        15           As  tau(  15) = (   0.2928585   0.1690819   1.4184023  )
        16           As  tau(  16) = (   0.2928585   0.1690819   2.2289179  )

     number of k points=     1  Gaussian smearing, width (Ry)=  0.0147
                       cart. coord. in units 2pi/alat
        k(    1) = (   0.0000000   0.0000000   0.0000000), wk =   2.0000000

     Dense  grid:    54385 G-vectors     FFT dimensions: (  48,  72,  80)

     Estimated max dynamical RAM per process >      12.09 MB

     Estimated total dynamical RAM >     338.54 MB

     Check: negative core charge=   -0.000023

     Initial potential from superposition of free atoms

     starting charge     180.9961, renormalised to     181.0000
     Starting wfcs are  112 randomized atomic wfcs

     total cpu time spent up to now is        0.5 secs

     Self-consistent Calculation

     iteration #  1     ecut=    40.42 Ry     beta= 0.70
     Davidson diagonalization with overlap
     ethr =  1.00E-02,  avg # of iterations =  4.0

     total cpu time spent up to now is        0.8 secs

     total energy              =   -2747.77925825 Ry
     estimated scf accuracy    <       3.04934448 Ry

     iteration #  2     ecut=    40.42 Ry     beta= 0.70
     Davidson diagonalization with overlap
     ethr =  1.68E-03,  avg # of iterations =  5.0

     total cpu time spent up to now is        1.1 secs

     total energy              =   -2742.53394743 Ry
     estimated scf accuracy    <      70.36988764 Ry

     iteration #  3     ecut=    40.42 Ry     beta= 0.70
     Davidson diagonalization with overlap
     ethr =  1.68E-03,  avg # of iterations =  4.0

     total cpu time spent up to now is        1.3 secs

     total energy              =   -2747.77588204 Ry
     estimated scf accuracy    <      32.85379361 Ry

     iteration #  4     ecut=    40.42 Ry     beta= 0.70
     Davidson diagonalization with overlap
     ethr =  1.68E-03,  avg # of iterations =  6.0

     total cpu time spent up to now is        1.5 secs

     total energy              =   -2749.35973649 Ry
     estimated scf accuracy    <       5.08143197 Ry

     iteration #  5     ecut=    40.42 Ry     beta= 0.70
     Davidson diagonalization with overlap
     ethr =  1.68E-03,  avg # of iterations =  2.0

     total cpu time spent up to now is        1.7 secs

     total energy              =   -2749.46503850 Ry
     estimated scf accuracy    <       4.45829791 Ry

     iteration #  6     ecut=    40.42 Ry     beta= 0.70
     Davidson diagonalization with overlap
     ethr =  1.68E-03,  avg # of iterations =  2.0

     total cpu time spent up to now is        1.9 secs

     total energy              =   -2749.47247251 Ry
     estimated scf accuracy    <       3.13805647 Ry

     iteration #  7     ecut=    40.42 Ry     beta= 0.70
     Davidson diagonalization with overlap
     ethr =  1.68E-03,  avg # of iterations =  1.0

     total cpu time spent up to now is        2.0 secs

     total energy              =   -2749.67404880 Ry
     estimated scf accuracy    <       0.29627771 Ry

     iteration #  8     ecut=    40.42 Ry     beta= 0.70
     Davidson diagonalization with overlap
     ethr =  1.64E-04,  avg # of iterations =  2.0

     total cpu time spent up to now is        2.2 secs

     total energy              =   -2749.67940202 Ry
     estimated scf accuracy    <       0.21790544 Ry

     iteration #  9     ecut=    40.42 Ry     beta= 0.70
     Davidson diagonalization with overlap
     ethr =  1.20E-04,  avg # of iterations =  1.0

     total cpu time spent up to now is        2.4 secs

     total energy              =   -2749.68442248 Ry
     estimated scf accuracy    <       0.08184111 Ry

     iteration # 10     ecut=    40.42 Ry     beta= 0.70
     Davidson diagonalization with overlap
     ethr =  4.52E-05,  avg # of iterations =  1.0

     total cpu time spent up to now is        2.5 secs

     total energy              =   -2749.68170469 Ry
     estimated scf accuracy    <       0.04579141 Ry

     iteration # 11     ecut=    40.42 Ry     beta= 0.70
     Davidson diagonalization with overlap
     ethr =  2.53E-05,  avg # of iterations =  1.0

     total cpu time spent up to now is        2.7 secs

     total energy              =   -2749.68091299 Ry
     estimated scf accuracy    <       0.00906780 Ry

     iteration # 12     ecut=    40.42 Ry     beta= 0.70
     Davidson diagonalization with overlap
     c_bands:  1 eigenvalues not converged
     ethr =  5.01E-06,  avg # of iterations = 20.0

     total cpu time spent up to now is        3.0 secs

     total energy              =   -2749.68186106 Ry
     estimated scf accuracy    <       0.00642666 Ry

     iteration # 13     ecut=    40.42 Ry     beta= 0.70
     Davidson diagonalization with overlap
     ethr =  3.55E-06,  avg # of iterations =  2.0

     total cpu time spent up to now is        3.2 secs

     total energy              =   -2749.68187258 Ry
     estimated scf accuracy    <       0.00481660 Ry

     iteration # 14     ecut=    40.42 Ry     beta= 0.70
     Davidson diagonalization with overlap
     ethr =  2.66E-06,  avg # of iterations =  1.0

     total cpu time spent up to now is        3.4 secs

     total energy              =   -2749.68213031 Ry
     estimated scf accuracy    <       0.00017352 Ry

     iteration # 15     ecut=    40.42 Ry     beta= 0.70
     Davidson diagonalization with overlap
     ethr =  9.59E-08,  avg # of iterations =  2.0

     total cpu time spent up to now is        3.5 secs

     total energy              =   -2749.68214475 Ry
     estimated scf accuracy    <       0.00013386 Ry

     iteration # 16     ecut=    40.42 Ry     beta= 0.70
     Davidson diagonalization with overlap
     ethr =  7.40E-08,  avg # of iterations =  2.0

     total cpu time spent up to now is        3.7 secs

     total energy              =   -2749.68214362 Ry
     estimated scf accuracy    <       0.00015385 Ry

     iteration # 17     ecut=    40.42 Ry     beta= 0.70
     Davidson diagonalization with overlap
     ethr =  7.40E-08,  avg # of iterations =  1.0

     total cpu time spent up to now is        3.9 secs

     total energy              =   -2749.68215103 Ry
     estimated scf accuracy    <       0.00002904 Ry

     iteration # 18     ecut=    40.42 Ry     beta= 0.70
     Davidson diagonalization with overlap
     ethr =  1.60E-08,  avg # of iterations =  2.0

     total cpu time spent up to now is        4.0 secs

     total energy              =   -2749.68215166 Ry
     estimated scf accuracy    <       0.00006538 Ry

     iteration # 19     ecut=    40.42 Ry     beta= 0.70
     Davidson diagonalization with overlap
     ethr =  1.60E-08,  avg # of iterations =  1.0

     total cpu time spent up to now is        4.2 secs

     total energy              =   -2749.68215389 Ry
     estimated scf accuracy    <       0.00000262 Ry

     iteration # 20     ecut=    40.42 Ry     beta= 0.70
     Davidson diagonalization with overlap
     ethr =  1.45E-09,  avg # of iterations =  2.0

     total cpu time spent up to now is        4.4 secs

     total energy              =   -2749.68215416 Ry
     estimated scf accuracy    <       0.00000254 Ry

     iteration # 21     ecut=    40.42 Ry     beta= 0.70
     Davidson diagonalization with overlap
     ethr =  1.41E-09,  avg # of iterations =  2.0

     total cpu time spent up to now is        4.5 secs

     total energy              =   -2749.68215396 Ry
     estimated scf accuracy    <       0.00000575 Ry

     iteration # 22     ecut=    40.42 Ry     beta= 0.70
     Davidson diagonalization with overlap
     ethr =  1.41E-09,  avg # of iterations =  2.0

     total cpu time spent up to now is        4.7 secs

     End of self-consistent calculation

          k = 0.0000 0.0000 0.0000 (  6739 PWs)   bands (ev):

   -90.5132 -90.5130 -90.2829 -90.2826 -90.2690 -90.2402 -90.2395 -65.7197
   -50.6269 -50.5827 -50.4741 -50.4195 -50.3742 -50.3705 -50.3636 -50.3325
   -50.3273 -50.3058 -50.2939 -50.2730 -50.2656 -50.2578 -50.2377 -50.1856
   -50.1550 -50.0858 -50.0816 -50.0761 -50.0398 -34.9358 -34.5891 -34.4171
    -1.5132   0.8439   1.2401   1.2520   1.2571   1.3126   1.5071   2.1481
     6.0187   6.1102   6.6207   6.6635   6.7281   6.7286   8.2518   8.3128
     8.3141   8.3491   8.6406   8.6834   8.7775   8.9382   9.0149   9.0896
     9.5236   9.7547   9.7978   9.8479   9.9015   9.9053   9.9088  10.4347
    10.4619  10.8031  10.9026  10.9130  10.9233  10.9271  10.9633  11.1104
    11.1457  11.1598  11.2729  11.3112  11.4250  11.5066  11.5070  11.5686
    11.5911  11.6219  11.6561  11.7919  11.9737  12.0967  12.2449  12.2483
    12.4765  12.5771  12.8661  12.9230  13.0149  13.0258  13.2832  14.5789
    15.3804  15.6265  15.6296  15.6364  15.6850  15.9470  16.0178  16.1632
    16.6725  17.4554  18.0808  18.8584  18.9685

     the Fermi energy is    12.7910 ev

!    total energy              =   -2749.68215365 Ry
     estimated scf accuracy    <       0.00000074 Ry
     smearing contrib. (-TS)   =      -0.02039677 Ry
     internal energy E=F+TS    =   -2749.66175688 Ry

     The total energy is F=E-TS. E is the sum of the following terms:
     one-electron contribution =   -2039.37100995 Ry
     hartree contribution      =    1109.19287887 Ry
     xc contribution           =    -357.42567132 Ry
     ewald contribution        =   -1462.05795447 Ry

     convergence has been achieved in  22 iterations

     Forces acting on atoms (cartesian axes, Ry/au):

     atom    1 type  1   force =    -0.00184753    0.00000000    0.00000000
     atom    2 type  1   force =     0.00000000    0.00000000    0.00000000
     atom    3 type  1   force =     0.00184753    0.00000000    0.00000000
     atom    4 type  1   force =     0.00000000    0.00000000    0.00000000
     atom    5 type  2   force =     0.00422285    0.04058256    0.00335157
     atom    6 type  2   force =    -0.00422285    0.04058256    0.00335157
     atom    7 type  1   force =     0.00000000   -0.00037932    0.02194926
     atom    8 type  1   force =     0.00000000    0.00000000    0.00000000
     atom    9 type  1   force =     0.00000000    0.00037932   -0.02194926
     atom   10 type  3   force =     0.00000000    0.00000000    0.00000000
     atom   11 type  2   force =     0.00000000    0.01688598    0.00939547
     atom   12 type  2   force =     0.00000000    0.01482673    0.00460609
     atom   13 type  2   force =     0.00000000   -0.01688598   -0.00939547
     atom   14 type  2   force =     0.00000000   -0.01482673   -0.00460609
     atom   15 type  2   force =    -0.00422285   -0.04058256   -0.00335157
     atom   16 type  2   force =     0.00422285   -0.04058256   -0.00335157
     The non-local contrib.  to forces
     atom    1 type  1   force =    -0.01053127   -0.00000000    0.00000000
     atom    2 type  1   force =     0.00000000    0.00000000    0.00000000
     atom    3 type  1   force =     0.01053127    0.00000000    0.00000000
     atom    4 type  1   force =     0.00000000    0.00000000    0.00000000
     atom    5 type  2   force =    -0.00198549    0.00178990    0.01251348
     atom    6 type  2   force =     0.00198549    0.00178990    0.01251348
     atom    7 type  1   force =     0.00000000   -0.03674502   -0.02638531
     atom    8 type  1   force =     0.00000000    0.00000000    0.00000000
     atom    9 type  1   force =     0.00000000    0.03674502    0.02638531
     atom   10 type  3   force =     0.00000000    0.00000000    0.00000000
     atom   11 type  2   force =     0.00000000   -0.00026374   -0.03063750
     atom   12 type  2   force =     0.00000000    0.02758634    0.01169646
     atom   13 type  2   force =     0.00000000    0.00026374    0.03063750
     atom   14 type  2   force =     0.00000000   -0.02758634   -0.01169646
     atom   15 type  2   force =     0.00198549   -0.00178990   -0.01251348
     atom   16 type  2   force =    -0.00198549   -0.00178990   -0.01251348
     The ionic contribution  to forces
     atom    1 type  1   force =    -1.18467364    0.00000000    0.00000000
     atom    2 type  1   force =    -0.00000000    0.00000000    0.00000000
     atom    3 type  1   force =     1.18467364    0.00000000   -0.00000000
     atom    4 type  1   force =    -0.00000000    0.00000000    0.00000000
     atom    5 type  2   force =     0.77173659    0.52918961    0.45203416
     atom    6 type  2   force =    -0.77173627    0.52918963    0.45203419
     atom    7 type  1   force =    -0.00000000   -0.00000000   -3.26532667
     atom    8 type  1   force =    -0.00000000   -0.00000000    0.00000000
     atom    9 type  1   force =    -0.00000000   -0.00000000    3.26532667
     atom   10 type  3   force =     0.00000000   -0.00000000    0.00000000
     atom   11 type  2   force =     0.00000018   -0.86914373    0.59268347
     atom   12 type  2   force =     0.00000017   -0.18923591   -0.06994739
     atom   13 type  2   force =    -0.00000018    0.86914373   -0.59268347
     atom   14 type  2   force =    -0.00000017    0.18923591    0.06994739
     atom   15 type  2   force =    -0.77173659   -0.52918961   -0.45203416
     atom   16 type  2   force =     0.77173627   -0.52918963   -0.45203419
     The local contribution  to forces
     atom    1 type  1   force =     1.19318097    0.00000000    0.00000000
     atom    2 type  1   force =     0.00000000    0.00000000    0.00000000
     atom    3 type  1   force =    -1.19318097    0.00000000    0.00000000
     atom    4 type  1   force =    -0.00000000    0.00000000   -0.00000000
     atom    5 type  2   force =    -0.76885845   -0.49356199   -0.46116911
     atom    6 type  2   force =     0.76885809   -0.49356200   -0.46116913
     atom    7 type  1   force =     0.00000000    0.03565155    3.31349216
     atom    8 type  1   force =     0.00000000   -0.00000002   -0.00000000
     atom    9 type  1   force =     0.00000000   -0.03565158   -3.31349216
     atom   10 type  3   force =     0.00000000   -0.00000001    0.00000000
     atom   11 type  2   force =    -0.00000020    0.88883280   -0.56055769
     atom   12 type  2   force =    -0.00000018    0.17987002    0.06452593
     atom   13 type  2   force =     0.00000020   -0.88883280    0.56055769
     atom   14 type  2   force =     0.00000018   -0.17987002   -0.06452593
     atom   15 type  2   force =     0.76885845    0.49356199    0.46116911
     atom   16 type  2   force =    -0.76885809    0.49356200    0.46116913
     The core correction contribution to forces
     atom    1 type  1   force =    -0.00011921   -0.00000012   -0.00000057
     atom    2 type  1   force =     0.00000000   -0.00000000    0.00000000
     atom    3 type  1   force =     0.00011921    0.00000012    0.00000057
     atom    4 type  1   force =    -0.00000000   -0.00000000    0.00000000
     atom    5 type  2   force =     0.00316891    0.00307791   -0.00018353
     atom    6 type  2   force =    -0.00316906    0.00307770   -0.00018407
     atom    7 type  1   force =    -0.00000033    0.00028064    0.00050507
     atom    8 type  1   force =     0.00000000   -0.00000000   -0.00000000
     atom    9 type  1   force =     0.00000033   -0.00028064   -0.00050507
     atom   10 type  3   force =    -0.00000000   -0.00000000    0.00000000
     atom   11 type  2   force =    -0.00000000   -0.00238337    0.00775714
     atom   12 type  2   force =     0.00000002   -0.00339448   -0.00170133
     atom   13 type  2   force =     0.00000000    0.00238337   -0.00775714
     atom   14 type  2   force =    -0.00000002    0.00339448    0.00170133
     atom   15 type  2   force =    -0.00316891   -0.00307791    0.00018353
     atom   16 type  2   force =     0.00316906   -0.00307770    0.00018407
     The Hubbard contrib.    to forces
     atom    1 type  1   force =     0.00000000    0.00000000    0.00000000
     atom    2 type  1   force =     0.00000000    0.00000000    0.00000000
     atom    3 type  1   force =     0.00000000    0.00000000    0.00000000
     atom    4 type  1   force =     0.00000000    0.00000000    0.00000000
     atom    5 type  2   force =     0.00000000    0.00000000    0.00000000
     atom    6 type  2   force =     0.00000000    0.00000000    0.00000000
     atom    7 type  1   force =     0.00000000    0.00000000    0.00000000
     atom    8 type  1   force =     0.00000000    0.00000000    0.00000000
     atom    9 type  1   force =     0.00000000    0.00000000    0.00000000
     atom   10 type  3   force =     0.00000000    0.00000000    0.00000000
     atom   11 type  2   force =     0.00000000    0.00000000    0.00000000
     atom   12 type  2   force =     0.00000000    0.00000000    0.00000000
     atom   13 type  2   force =     0.00000000    0.00000000    0.00000000
     atom   14 type  2   force =     0.00000000    0.00000000    0.00000000
     atom   15 type  2   force =     0.00000000    0.00000000    0.00000000
     atom   16 type  2   force =     0.00000000    0.00000000    0.00000000
     The SCF correction term to forces
     atom    1 type  1   force =     0.00029562   -0.00000004   -0.00000005
     atom    2 type  1   force =    -0.00000000   -0.00000000    0.00000000
     atom    3 type  1   force =    -0.00029562    0.00000004    0.00000005
     atom    4 type  1   force =     0.00000000    0.00000000    0.00000000
     atom    5 type  2   force =     0.00016120    0.00008722    0.00015683
     atom    6 type  2   force =    -0.00016120    0.00008722    0.00015683
     atom    7 type  1   force =    -0.00000020    0.00043350   -0.00033600
     atom    8 type  1   force =     0.00000000    0.00000000   -0.00000000
     atom    9 type  1   force =     0.00000020   -0.00043350    0.00033600
     atom   10 type  3   force =     0.00000000   -0.00000000   -0.00000000
     atom   11 type  2   force =     0.00000001   -0.00015598    0.00015005
     atom   12 type  2   force =    -0.00000001    0.00000076    0.00003241
     atom   13 type  2   force =    -0.00000001    0.00015598   -0.00015005
     atom   14 type  2   force =     0.00000001   -0.00000076   -0.00003241
     atom   15 type  2   force =    -0.00016120   -0.00008722   -0.00015683
     atom   16 type  2   force =     0.00016120   -0.00008722   -0.00015683

     Total force =     0.094359     Total SCF correction =     0.001051

     BFGS Geometry Optimization
     Energy error            =      0.0E+00 Ry
     Gradient error          =      4.1E-02 Ry/Bohr

     number of scf cycles    =   1
     number of bfgs steps    =   0

     energy             new  =   -2749.6821536475 Ry

     new trust radius        =       0.0409390948 bohr
     new conv_thr            =       0.0000010000 Ry


ATOMIC_POSITIONS (angstrom)
Ni           -1.8238796931        3.1573589245        2.5225330000
Ni           -1.8229020250        3.1573589245        5.0450660000
Ni           -1.8219243569        3.1573589245        7.5675990000
Ni           -1.8229020250        3.1573589245       10.0901320000
As           -1.8206674085        5.2837402495        6.3081060757
As           -1.8251366779        5.2837402495       11.3531720757
Ni           -0.0000000000       -0.0002007275        0.0116150493
Ni            0.0000000000        0.0000000000        2.5225330000
Ni            0.0000000000        0.0002007275        5.0334509507
Mn            0.0000000000        0.0000000000        7.5675990000
As           -0.0000000182        2.1138416368        6.3113043664
As           -0.0000000182        2.1127519302       11.3538359386
As            0.0000000182        4.2008762122        8.8238936336
As            0.0000000182        4.2019659188       13.8714940614
As            1.8206674085        1.0309775995        8.8270919243
As            1.8251366779        1.0309775995       13.8721579243



     Writing config-only to output data dir ./tutorial.save/
     NEW-OLD atomic charge density approx. for the potential

     Check: negative core charge=   -0.000023

     total cpu time spent up to now is        5.0 secs

     Self-consistent Calculation

     iteration #  1     ecut=    40.42 Ry     beta= 0.70
     Davidson diagonalization with overlap
     ethr =  1.00E-06,  avg # of iterations =  8.0

     total cpu time spent up to now is        5.4 secs

     total energy              =   -2749.68594663 Ry
     estimated scf accuracy    <       0.02498848 Ry

     iteration #  2     ecut=    40.42 Ry     beta= 0.70
     Davidson diagonalization with overlap
     ethr =  1.38E-05,  avg # of iterations =  3.0

     total cpu time spent up to now is        5.6 secs

     total energy              =   -2749.67389078 Ry
     estimated scf accuracy    <       0.47393333 Ry

     iteration #  3     ecut=    40.42 Ry     beta= 0.70
     Davidson diagonalization with overlap
     ethr =  1.38E-05,  avg # of iterations =  3.0

     total cpu time spent up to now is        5.8 secs

     total energy              =   -2749.67342741 Ry
     estimated scf accuracy    <       0.73252257 Ry

     iteration #  4     ecut=    40.42 Ry     beta= 0.70
     Davidson diagonalization with overlap
     ethr =  1.38E-05,  avg # of iterations =  2.0

     total cpu time spent up to now is        6.0 secs

     total energy              =   -2749.69045374 Ry
     estimated scf accuracy    <       0.00864208 Ry

     iteration #  5     ecut=    40.42 Ry     beta= 0.70
     Davidson diagonalization with overlap
     ethr =  4.77E-06,  avg # of iterations =  1.0

     total cpu time spent up to now is        6.2 secs

     total energy              =   -2749.69042635 Ry
     estimated scf accuracy    <       0.00659106 Ry

     iteration #  6     ecut=    40.42 Ry     beta= 0.70
     Davidson diagonalization with overlap
     ethr =  3.64E-06,  avg # of iterations =  2.0

     total cpu time spent up to now is        6.3 secs

     total energy              =   -2749.69049116 Ry
     estimated scf accuracy    <       0.00099125 Ry

     iteration #  7     ecut=    40.42 Ry     beta= 0.70
     Davidson diagonalization with overlap
     ethr =  5.48E-07,  avg # of iterations =  2.0

     total cpu time spent up to now is        6.5 secs

     total energy              =   -2749.69056003 Ry
     estimated scf accuracy    <       0.00019626 Ry

     iteration #  8     ecut=    40.42 Ry     beta= 0.70
     Davidson diagonalization with overlap
     ethr =  1.08E-07,  avg # of iterations =  2.0

     total cpu time spent up to now is        6.7 secs

     total energy              =   -2749.69056801 Ry
     estimated scf accuracy    <       0.00014853 Ry

     iteration #  9     ecut=    40.42 Ry     beta= 0.70
     Davidson diagonalization with overlap
     ethr =  8.21E-08,  avg # of iterations =  1.0

     total cpu time spent up to now is        6.8 secs

     total energy              =   -2749.69057610 Ry
     estimated scf accuracy    <       0.00002644 Ry

     iteration # 10     ecut=    40.42 Ry     beta= 0.70
     Davidson diagonalization with overlap
     ethr =  1.46E-08,  avg # of iterations =  2.0

     total cpu time spent up to now is        7.0 secs

     total energy              =   -2749.69057669 Ry
     estimated scf accuracy    <       0.00002784 Ry

     iteration # 11     ecut=    40.42 Ry     beta= 0.70
     Davidson diagonalization with overlap
     ethr =  1.46E-08,  avg # of iterations =  2.0

     total cpu time spent up to now is        7.2 secs

     total energy              =   -2749.69057828 Ry
     estimated scf accuracy    <       0.00003911 Ry

     iteration # 12     ecut=    40.42 Ry     beta= 0.70
     Davidson diagonalization with overlap
     ethr =  1.46E-08,  avg # of iterations =  1.0

     total cpu time spent up to now is        7.3 secs

     total energy              =   -2749.69057856 Ry
     estimated scf accuracy    <       0.00000776 Ry

     iteration # 13     ecut=    40.42 Ry     beta= 0.70
     Davidson diagonalization with overlap
     ethr =  4.29E-09,  avg # of iterations =  1.0

     total cpu time spent up to now is        7.5 secs

     total energy              =   -2749.69057821 Ry
     estimated scf accuracy    <       0.00000766 Ry

     iteration # 14     ecut=    40.42 Ry     beta= 0.70
     Davidson diagonalization with overlap
     ethr =  4.23E-09,  avg # of iterations =  2.0

     total cpu time spent up to now is        7.7 secs

     total energy              =   -2749.69057792 Ry
     estimated scf accuracy    <       0.00000922 Ry

     iteration # 15     ecut=    40.42 Ry     beta= 0.70
     Davidson diagonalization with overlap
     ethr =  4.23E-09,  avg # of iterations =  2.0

     total cpu time spent up to now is        7.8 secs

     total energy              =   -2749.69057734 Ry
     estimated scf accuracy    <       0.00002001 Ry

     iteration # 16     ecut=    40.42 Ry     beta= 0.70
     Davidson diagonalization with overlap
     ethr =  4.23E-09,  avg # of iterations =  2.0

     total cpu time spent up to now is        8.0 secs

     End of self-consistent calculation

          k = 0.0000 0.0000 0.0000 (  6739 PWs)   bands (ev):

   -90.5142 -90.5140 -90.3048 -90.2876 -90.2873 -90.2583 -90.2577 -65.7451
   -50.6326 -50.5886 -50.4762 -50.4223 -50.3828 -50.3673 -50.3595 -50.3450
   -50.3390 -50.3188 -50.3099 -50.2994 -50.2864 -50.2802 -50.2776 -50.2154
   -50.1863 -50.0850 -50.0826 -50.0763 -50.0402 -34.9561 -34.6111 -34.4506
    -1.5111   0.8843   1.2355   1.2576   1.2643   1.3065   1.4542   2.1507
     6.0271   6.1581   6.6350   6.6818   6.7388   6.7520   8.2541   8.3047
     8.3064   8.3261   8.6286   8.6906   8.7475   8.8972   8.9471   9.1508
     9.5135   9.7254   9.8013   9.8556   9.8813   9.8945   9.8964  10.4292
    10.4491  10.7991  10.8961  10.9094  10.9138  10.9144  10.9595  11.1075
    11.1381  11.1687  11.2611  11.2818  11.4016  11.5020  11.5066  11.5357
    11.5811  11.6234  11.6360  11.7675  11.9587  12.0883  12.2439  12.2546
    12.4225  12.5530  12.8550  12.9183  12.9531  13.0902  13.2740  14.5368
    15.3818  15.6238  15.6360  15.6458  15.6607  15.9564  16.0035  16.1647
    16.7100  17.4425  18.0801  18.8563  18.9733

     the Fermi energy is    12.7760 ev

!    total energy              =   -2749.69057854 Ry
     estimated scf accuracy    <       0.00000018 Ry
     smearing contrib. (-TS)   =      -0.01937309 Ry
     internal energy E=F+TS    =   -2749.67120545 Ry

     The total energy is F=E-TS. E is the sum of the following terms:
     one-electron contribution =   -2039.40664907 Ry
     hartree contribution      =    1109.11831307 Ry
     xc contribution           =    -357.41528447 Ry
     ewald contribution        =   -1461.96758498 Ry

     convergence has been achieved in  16 iterations

     Forces acting on atoms (cartesian axes, Ry/au):

     atom    1 type  1   force =    -0.00051044    0.00000000    0.00000000
     atom    2 type  1   force =     0.00000000    0.00000000    0.00000000
     atom    3 type  1   force =     0.00051044    0.00000000    0.00000000
     atom    4 type  1   force =     0.00000000    0.00000000    0.00000000
     atom    5 type  2   force =     0.00363411    0.03514092    0.00146589
     atom    6 type  2   force =    -0.00363411    0.03514092    0.00146589
     atom    7 type  1   force =     0.00000000    0.00043779    0.02106843
     atom    8 type  1   force =     0.00000000    0.00000000    0.00000000
     atom    9 type  1   force =     0.00000000   -0.00043779   -0.02106843
     atom   10 type  3   force =     0.00000000    0.00000000    0.00000000
     atom   11 type  2   force =     0.00000000    0.01633154    0.00834549
     atom   12 type  2   force =     0.00000000    0.01533292    0.00319912
     atom   13 type  2   force =     0.00000000   -0.01633154   -0.00834549
     atom   14 type  2   force =     0.00000000   -0.01533292   -0.00319912
     atom   15 type  2   force =    -0.00363411   -0.03514092   -0.00146589
     atom   16 type  2   force =     0.00363411   -0.03514092   -0.00146589
     The non-local contrib.  to forces
     atom    1 type  1   force =    -0.00897632    0.00000000    0.00000000
     atom    2 type  1   force =     0.00000000    0.00000000    0.00000000
     atom    3 type  1   force =     0.00897632    0.00000000    0.00000000
     atom    4 type  1   force =     0.00000000    0.00000000    0.00000000
     atom    5 type  2   force =    -0.00593465    0.00183707    0.01231015
     atom    6 type  2   force =     0.00593465    0.00183707    0.01231015
     atom    7 type  1   force =     0.00000000   -0.04068462   -0.02711672
     atom    8 type  1   force =     0.00000000    0.00000000    0.00000000
     atom    9 type  1   force =     0.00000000    0.04068462    0.02711672
     atom   10 type  3   force =     0.00000000    0.00000000    0.00000000
     atom   11 type  2   force =     0.00000000   -0.00092344   -0.03147680
     atom   12 type  2   force =     0.00000000    0.02609730    0.01244191
     atom   13 type  2   force =     0.00000000    0.00092344    0.03147680
     atom   14 type  2   force =     0.00000000   -0.02609730   -0.01244191
     atom   15 type  2   force =     0.00593465   -0.00183707   -0.01231015
     atom   16 type  2   force =    -0.00593465   -0.00183707   -0.01231015
     The ionic contribution  to forces
     atom    1 type  1   force =    -1.20071187    0.00000000   -0.00000000
     atom    2 type  1   force =    -0.00000000    0.00000000    0.00000000
     atom    3 type  1   force =     1.20071187    0.00000000    0.00000000
     atom    4 type  1   force =    -0.00000000    0.00000000    0.00000000
     atom    5 type  2   force =     0.85346896    0.30075105    0.44007979
     atom    6 type  2   force =    -0.85346862    0.30075107    0.44007982
     atom    7 type  1   force =    -0.00000000   -0.03731417   -3.80444611
     atom    8 type  1   force =    -0.00000000   -0.00000000   -0.00000000
     atom    9 type  1   force =     0.00000000    0.03731416    3.80444611
     atom   10 type  3   force =     0.00000000   -0.00000000   -0.00000000
     atom   11 type  2   force =     0.00000018   -0.97096561    0.54601640
     atom   12 type  2   force =     0.00000017   -0.17942473   -0.08906834
     atom   13 type  2   force =    -0.00000018    0.97096561   -0.54601640
     atom   14 type  2   force =    -0.00000017    0.17942473    0.08906834
     atom   15 type  2   force =    -0.85346896   -0.30075105   -0.44007979
     atom   16 type  2   force =     0.85346862   -0.30075107   -0.44007982
     The local contribution  to forces
     atom    1 type  1   force =     1.20942248    0.00000000    0.00000000
     atom    2 type  1   force =     0.00000000    0.00000000    0.00000000
     atom    3 type  1   force =    -1.20942248    0.00000000    0.00000000
     atom    4 type  1   force =    -0.00000000    0.00000000   -0.00000000
     atom    5 type  2   force =    -0.84752618   -0.27220726   -0.45083731
     atom    6 type  2   force =     0.84752581   -0.27220728   -0.45083733
     atom    7 type  1   force =     0.00000000    0.07800688    3.85186093
     atom    8 type  1   force =     0.00000000   -0.00000002   -0.00000000
     atom    9 type  1   force =     0.00000000   -0.07800691   -3.85186093
     atom   10 type  3   force =     0.00000000   -0.00000001    0.00000000
     atom   11 type  2   force =    -0.00000020    0.98946737   -0.51445536
     atom   12 type  2   force =    -0.00000019    0.17133521    0.08169199
     atom   13 type  2   force =     0.00000020   -0.98946737    0.51445536
     atom   14 type  2   force =     0.00000019   -0.17133521   -0.08169199
     atom   15 type  2   force =     0.84752618    0.27220726    0.45083731
     atom   16 type  2   force =    -0.84752581    0.27220728    0.45083733
     The core correction contribution to forces
     atom    1 type  1   force =    -0.00016480   -0.00000004   -0.00000099
     atom    2 type  1   force =     0.00000000   -0.00000000    0.00000000
     atom    3 type  1   force =     0.00016480    0.00000004    0.00000099
     atom    4 type  1   force =    -0.00000000   -0.00000000    0.00000000
     atom    5 type  2   force =     0.00359162    0.00474639   -0.00005835
     atom    6 type  2   force =    -0.00359176    0.00474615   -0.00005893
     atom    7 type  1   force =     0.00000336    0.00041684    0.00088180
     atom    8 type  1   force =     0.00000000   -0.00000000   -0.00000000
     atom    9 type  1   force =    -0.00000336   -0.00041684   -0.00088180
     atom   10 type  3   force =    -0.00000000   -0.00000000    0.00000000
     atom   11 type  2   force =    -0.00000003   -0.00119005    0.00827449
     atom   12 type  2   force =     0.00000005   -0.00268667   -0.00183455
     atom   13 type  2   force =     0.00000003    0.00119005   -0.00827449
     atom   14 type  2   force =    -0.00000005    0.00268667    0.00183455
     atom   15 type  2   force =    -0.00359162   -0.00474639    0.00005835
     atom   16 type  2   force =     0.00359176   -0.00474615    0.00005893
     The Hubbard contrib.    to forces
     atom    1 type  1   force =     0.00000000    0.00000000    0.00000000
     atom    2 type  1   force =     0.00000000    0.00000000    0.00000000
     atom    3 type  1   force =     0.00000000    0.00000000    0.00000000
     atom    4 type  1   force =     0.00000000    0.00000000    0.00000000
     atom    5 type  2   force =     0.00000000    0.00000000    0.00000000
     atom    6 type  2   force =     0.00000000    0.00000000    0.00000000
     atom    7 type  1   force =     0.00000000    0.00000000    0.00000000
     atom    8 type  1   force =     0.00000000    0.00000000    0.00000000
     atom    9 type  1   force =     0.00000000    0.00000000    0.00000000
     atom   10 type  3   force =     0.00000000    0.00000000    0.00000000
     atom   11 type  2   force =     0.00000000    0.00000000    0.00000000
     atom   12 type  2   force =     0.00000000    0.00000000    0.00000000
     atom   13 type  2   force =     0.00000000    0.00000000    0.00000000
     atom   14 type  2   force =     0.00000000    0.00000000    0.00000000
     atom   15 type  2   force =     0.00000000    0.00000000    0.00000000
     atom   16 type  2   force =     0.00000000    0.00000000    0.00000000
     The SCF correction term to forces
     atom    1 type  1   force =    -0.00007993    0.00000001   -0.00000002
     atom    2 type  1   force =     0.00000000   -0.00000000    0.00000000
     atom    3 type  1   force =     0.00007993   -0.00000001    0.00000002
     atom    4 type  1   force =     0.00000000   -0.00000000   -0.00000000
     atom    5 type  2   force =     0.00003427    0.00001379   -0.00002811
     atom    6 type  2   force =    -0.00003427    0.00001379   -0.00002811
     atom    7 type  1   force =    -0.00000003    0.00001284   -0.00011146
     atom    8 type  1   force =     0.00000000    0.00000000    0.00000000
     atom    9 type  1   force =     0.00000003   -0.00001284    0.00011146
     atom   10 type  3   force =    -0.00000000   -0.00000000   -0.00000000
     atom   11 type  2   force =    -0.00000000   -0.00005673   -0.00001325
     atom   12 type  2   force =    -0.00000000    0.00001181   -0.00003189
     atom   13 type  2   force =     0.00000000    0.00005673    0.00001325
     atom   14 type  2   force =     0.00000000   -0.00001181    0.00003189
     atom   15 type  2   force =    -0.00003427   -0.00001379    0.00002811
     atom   16 type  2   force =     0.00003427   -0.00001379    0.00002811

     Total force =     0.083982     Total SCF correction =     0.000236
     Energy error            =      8.4E-03 Ry
     Gradient error          =      3.5E-02 Ry/Bohr

     number of scf cycles    =   2
     number of bfgs steps    =   1

     energy             old  =   -2749.6821536475 Ry
     energy             new  =   -2749.6905785390 Ry

     CASE: energy            _new < energy            _old


     WARNING: bfgs curvature condition failed, Theta= 0.901
     new trust radius        =       0.0450330043 bohr
     new conv_thr            =       0.0000003514 Ry


ATOMIC_POSITIONS (angstrom)
Ni           -1.8243524564        3.1573589245        2.5225330000
Ni           -1.8229020250        3.1573589245        5.0450660000
Ni           -1.8214515936        3.1573589245        7.5675990000
Ni           -1.8229020250        3.1573589245       10.0901320000
As           -1.8182163115        5.3074160201        6.3092636005
As           -1.8275877749        5.3074160201       11.3543296005
Ni            0.0000000000        0.0000035874        0.0255656986
Ni            0.0000000000       -0.0000000000        2.5225330000
Ni           -0.0000000000       -0.0000035874        5.0195003014
Mn            0.0000000000       -0.0000000000        7.5675990000
As           -0.0000000182        2.1246425618        6.3169022151
As           -0.0000000182        2.1227872462       11.3560846820
As            0.0000000182        4.1900752872        8.8182957849
As            0.0000000182        4.1919306028       13.8692453180
As            1.8182163115        1.0073018289        8.8259343995
As            1.8275877749        1.0073018289       13.8710003995



     Writing config-only to output data dir ./tutorial.save/
     NEW-OLD atomic charge density approx. for the potential

     Check: negative core charge=   -0.000023

     total cpu time spent up to now is        8.3 secs

     Self-consistent Calculation

     iteration #  1     ecut=    40.42 Ry     beta= 0.70
     Davidson diagonalization with overlap
     ethr =  1.00E-06,  avg # of iterations =  7.0

     total cpu time spent up to now is        8.6 secs

     total energy              =   -2749.68953769 Ry
     estimated scf accuracy    <       0.04358927 Ry

     iteration #  2     ecut=    40.42 Ry     beta= 0.70
     Davidson diagonalization with overlap
     ethr =  2.41E-05,  avg # of iterations =  3.0

     total cpu time spent up to now is        8.8 secs

     total energy              =   -2749.56415838 Ry
     estimated scf accuracy    <       1.77011240 Ry

     iteration #  3     ecut=    40.42 Ry     beta= 0.70
     Davidson diagonalization with overlap
     ethr =  2.41E-05,  avg # of iterations =  4.0

     total cpu time spent up to now is        9.1 secs

     total energy              =   -2749.61005770 Ry
     estimated scf accuracy    <       3.67969119 Ry

     iteration #  4     ecut=    40.42 Ry     beta= 0.70
     Davidson diagonalization with overlap
     ethr =  2.41E-05,  avg # of iterations =  3.0

     total cpu time spent up to now is        9.3 secs

     total energy              =   -2749.69590978 Ry
     estimated scf accuracy    <       0.06788591 Ry

     iteration #  5     ecut=    40.42 Ry     beta= 0.70
     Davidson diagonalization with overlap
     ethr =  2.41E-05,  avg # of iterations =  1.0

     total cpu time spent up to now is        9.4 secs

     total energy              =   -2749.69847680 Ry
     estimated scf accuracy    <       0.01137883 Ry

     iteration #  6     ecut=    40.42 Ry     beta= 0.70
     Davidson diagonalization with overlap
     ethr =  6.29E-06,  avg # of iterations =  2.0

     total cpu time spent up to now is        9.6 secs

     total energy              =   -2749.69859218 Ry
     estimated scf accuracy    <       0.00874550 Ry

     iteration #  7     ecut=    40.42 Ry     beta= 0.70
     Davidson diagonalization with overlap
     ethr =  4.83E-06,  avg # of iterations =  1.0

     total cpu time spent up to now is        9.8 secs

     total energy              =   -2749.69871905 Ry
     estimated scf accuracy    <       0.00430055 Ry

     iteration #  8     ecut=    40.42 Ry     beta= 0.70
     Davidson diagonalization with overlap
     ethr =  2.38E-06,  avg # of iterations =  1.0

     total cpu time spent up to now is        9.9 secs

     total energy              =   -2749.69870541 Ry
     estimated scf accuracy    <       0.00249776 Ry

     iteration #  9     ecut=    40.42 Ry     beta= 0.70
     Davidson diagonalization with overlap
     ethr =  1.38E-06,  avg # of iterations =  2.0

     total cpu time spent up to now is       10.1 secs

     total energy              =   -2749.69871011 Ry
     estimated scf accuracy    <       0.00060381 Ry

     iteration # 10     ecut=    40.42 Ry     beta= 0.70
     Davidson diagonalization with overlap
     ethr =  3.34E-07,  avg # of iterations =  1.0

     total cpu time spent up to now is       10.2 secs

     total energy              =   -2749.69874664 Ry
     estimated scf accuracy    <       0.00017323 Ry

     iteration # 11     ecut=    40.42 Ry     beta= 0.70
     Davidson diagonalization with overlap
     ethr =  9.57E-08,  avg # of iterations =  1.0

     total cpu time spent up to now is       10.4 secs

     total energy              =   -2749.69874631 Ry
     estimated scf accuracy    <       0.00006577 Ry

     iteration # 12     ecut=    40.42 Ry     beta= 0.70
     Davidson diagonalization with overlap
     ethr =  3.63E-08,  avg # of iterations =  2.0

     total cpu time spent up to now is       10.6 secs

     total energy              =   -2749.69874887 Ry
     estimated scf accuracy    <       0.00000754 Ry

     iteration # 13     ecut=    40.42 Ry     beta= 0.70
     Davidson diagonalization with overlap
     ethr =  4.16E-09,  avg # of iterations =  4.0

     total cpu time spent up to now is       10.8 secs

     total energy              =   -2749.69874257 Ry
     estimated scf accuracy    <       0.00022290 Ry

     iteration # 14     ecut=    40.42 Ry     beta= 0.70
     Davidson diagonalization with overlap
     ethr =  4.16E-09,  avg # of iterations =  2.0

     total cpu time spent up to now is       10.9 secs

     total energy              =   -2749.69874798 Ry
     estimated scf accuracy    <       0.00002686 Ry

     iteration # 15     ecut=    40.42 Ry     beta= 0.70
     Davidson diagonalization with overlap
     ethr =  4.16E-09,  avg # of iterations =  2.0

     total cpu time spent up to now is       11.1 secs

     total energy              =   -2749.69874938 Ry
     estimated scf accuracy    <       0.00000628 Ry

     iteration # 16     ecut=    40.42 Ry     beta= 0.70
     Davidson diagonalization with overlap
     ethr =  3.47E-09,  avg # of iterations =  1.0

     total cpu time spent up to now is       11.3 secs

     total energy              =   -2749.69874970 Ry
     estimated scf accuracy    <       0.00000098 Ry

     iteration # 17     ecut=    40.42 Ry     beta= 0.70
     Davidson diagonalization with overlap
     ethr =  5.42E-10,  avg # of iterations =  1.0

     total cpu time spent up to now is       11.4 secs

     End of self-consistent calculation

          k = 0.0000 0.0000 0.0000 (  6739 PWs)   bands (ev):

   -90.5329 -90.5328 -90.3529 -90.3046 -90.3042 -90.2929 -90.2923 -65.7981
   -50.6552 -50.6119 -50.4949 -50.4419 -50.4075 -50.3803 -50.3783 -50.3713
   -50.3712 -50.3520 -50.3409 -50.3369 -50.3245 -50.3192 -50.3132 -50.2611
   -50.2277 -50.1019 -50.0901 -50.0889 -50.0520 -35.0024 -34.6575 -34.5134
    -1.5088   0.9335   1.2315   1.2562   1.2801   1.3006   1.3958   2.1564
     6.0288   6.2195   6.6507   6.7003   6.7496   6.7756   8.2538   8.2943
     8.2995   8.3016   8.6067   8.6949   8.7143   8.8441   8.8626   9.2227
     9.4907   9.6844   9.8045   9.8489   9.8531   9.8741   9.8827  10.4132
    10.4256  10.7824  10.8789  10.8897  10.8912  10.8941  10.9462  11.0906
    11.1172  11.1673  11.2385  11.2386  11.3657  11.4862  11.4922  11.4968
    11.5562  11.6089  11.6127  11.7292  11.9325  12.0696  12.2359  12.2508
    12.3468  12.5136  12.8279  12.8840  12.9008  13.1685  13.2514  14.4798
    15.3862  15.6073  15.6270  15.6442  15.6594  15.9660  15.9820  16.1659
    16.7441  17.4225  18.0797  18.8509  18.9764

     the Fermi energy is    12.7412 ev

!    total energy              =   -2749.69874967 Ry
     estimated scf accuracy    <       0.00000016 Ry
     smearing contrib. (-TS)   =      -0.01881153 Ry
     internal energy E=F+TS    =   -2749.67993813 Ry

     The total energy is F=E-TS. E is the sum of the following terms:
     one-electron contribution =   -2039.59208050 Ry
     hartree contribution      =    1109.08285581 Ry
     xc contribution           =    -357.40490980 Ry
     ewald contribution        =   -1461.76580365 Ry

     convergence has been achieved in  17 iterations

     Forces acting on atoms (cartesian axes, Ry/au):

     atom    1 type  1   force =     0.00111037    0.00000000    0.00000000
     atom    2 type  1   force =     0.00000000    0.00000000    0.00000000
     atom    3 type  1   force =    -0.00111037   -0.00000000    0.00000000
     atom    4 type  1   force =     0.00000000    0.00000000    0.00000000
     atom    5 type  2   force =     0.00268869    0.02772844   -0.00051191
     atom    6 type  2   force =    -0.00268869    0.02772844   -0.00051191
     atom    7 type  1   force =    -0.00000000    0.00172844    0.02018182
     atom    8 type  1   force =     0.00000000    0.00000000    0.00000000
     atom    9 type  1   force =     0.00000000   -0.00172844   -0.02018182
     atom   10 type  3   force =     0.00000000    0.00000000    0.00000000
     atom   11 type  2   force =     0.00000000    0.01425354    0.00724515
     atom   12 type  2   force =     0.00000000    0.01394016    0.00191667
     atom   13 type  2   force =     0.00000000   -0.01425354   -0.00724515
     atom   14 type  2   force =    -0.00000000   -0.01394016   -0.00191667
     atom   15 type  2   force =    -0.00268869   -0.02772844    0.00051191
     atom   16 type  2   force =     0.00268869   -0.02772844    0.00051191
     The non-local contrib.  to forces
     atom    1 type  1   force =    -0.00721916   -0.00000000    0.00000000
     atom    2 type  1   force =     0.00000000    0.00000000    0.00000000
     atom    3 type  1   force =     0.00721916    0.00000000    0.00000000
     atom    4 type  1   force =     0.00000000    0.00000000    0.00000000
     atom    5 type  2   force =    -0.01085431    0.00101897    0.01202282
     atom    6 type  2   force =     0.01085431    0.00101897    0.01202282
     atom    7 type  1   force =     0.00000000   -0.04823621   -0.02441155
     atom    8 type  1   force =     0.00000000    0.00000000    0.00000000
     atom    9 type  1   force =     0.00000000    0.04823621    0.02441155
     atom   10 type  3   force =     0.00000000    0.00000000    0.00000000
     atom   11 type  2   force =     0.00000000   -0.00139373   -0.03295077
     atom   12 type  2   force =     0.00000000    0.02416244    0.01314519
     atom   13 type  2   force =     0.00000000    0.00139373    0.03295077
     atom   14 type  2   force =     0.00000000   -0.02416244   -0.01314519
     atom   15 type  2   force =     0.01085431   -0.00101897   -0.01202282
     atom   16 type  2   force =    -0.01085431   -0.00101897   -0.01202282
     The ionic contribution  to forces
     atom    1 type  1   force =    -1.24530250    0.00000000   -0.00000000
     atom    2 type  1   force =    -0.00000000    0.00000000   -0.00000000
     atom    3 type  1   force =     1.24530250    0.00000000    0.00000000
     atom    4 type  1   force =    -0.00000000    0.00000000   -0.00000000
     atom    5 type  2   force =     0.95516134    0.06095556    0.43133608
     atom    6 type  2   force =    -0.95516099    0.06095558    0.43133610
     atom    7 type  1   force =    -0.00000001   -0.08053744   -4.46136956
     atom    8 type  1   force =    -0.00000000   -0.00000000   -0.00000000
     atom    9 type  1   force =     0.00000001    0.08053743    4.46136956
     atom   10 type  3   force =     0.00000000   -0.00000000   -0.00000000
     atom   11 type  2   force =     0.00000019   -1.09397071    0.49874957
     atom   12 type  2   force =     0.00000017   -0.18150425   -0.11126490
     atom   13 type  2   force =    -0.00000019    1.09397071   -0.49874957
     atom   14 type  2   force =    -0.00000017    0.18150425    0.11126490
     atom   15 type  2   force =    -0.95516134   -0.06095556   -0.43133608
     atom   16 type  2   force =     0.95516099   -0.06095558   -0.43133610
     The local contribution  to forces
     atom    1 type  1   force =     1.25367755    0.00000000    0.00000000
     atom    2 type  1   force =    -0.00000000    0.00000000   -0.00000000
     atom    3 type  1   force =    -1.25367755    0.00000000   -0.00000000
     atom    4 type  1   force =    -0.00000000    0.00000000   -0.00000000
     atom    5 type  2   force =    -0.94559416   -0.04085936   -0.44392986
     atom    6 type  2   force =     0.94559377   -0.04085938   -0.44392989
     atom    7 type  1   force =     0.00000000    0.12965686    4.50457005
     atom    8 type  1   force =     0.00000000   -0.00000002   -0.00000000
     atom    9 type  1   force =     0.00000000   -0.12965689   -4.50457005
     atom   10 type  3   force =     0.00000000   -0.00000001    0.00000000
     atom   11 type  2   force =    -0.00000021    1.10961434   -0.46742610
     atom   12 type  2   force =    -0.00000019    0.17331527    0.10196926
     atom   13 type  2   force =     0.00000021   -1.10961434    0.46742610
     atom   14 type  2   force =     0.00000019   -0.17331527   -0.10196926
     atom   15 type  2   force =     0.94559416    0.04085936    0.44392986
     atom   16 type  2   force =    -0.94559377    0.04085938    0.44392989
     The core correction contribution to forces
     atom    1 type  1   force =    -0.00019108    0.00000009   -0.00000119
     atom    2 type  1   force =    -0.00000000   -0.00000000    0.00000000
     atom    3 type  1   force =     0.00019108   -0.00000009    0.00000119
     atom    4 type  1   force =    -0.00000000   -0.00000000    0.00000000
     atom    5 type  2   force =     0.00409225    0.00653665    0.00003982
     atom    6 type  2   force =    -0.00409237    0.00653640    0.00003917
     atom    7 type  1   force =     0.00000593    0.00072386    0.00099253
     atom    8 type  1   force =     0.00000000   -0.00000000   -0.00000000
     atom    9 type  1   force =    -0.00000593   -0.00072386   -0.00099253
     atom   10 type  3   force =    -0.00000000   -0.00000000    0.00000000
     atom   11 type  2   force =    -0.00000004    0.00002610    0.00891425
     atom   12 type  2   force =     0.00000007   -0.00189114   -0.00197775
     atom   13 type  2   force =     0.00000004   -0.00002610   -0.00891425
     atom   14 type  2   force =    -0.00000007    0.00189114    0.00197775
     atom   15 type  2   force =    -0.00409225   -0.00653665   -0.00003982
     atom   16 type  2   force =     0.00409237   -0.00653640   -0.00003917
     The Hubbard contrib.    to forces
     atom    1 type  1   force =     0.00000000    0.00000000    0.00000000
     atom    2 type  1   force =     0.00000000    0.00000000    0.00000000
     atom    3 type  1   force =     0.00000000    0.00000000    0.00000000
     atom    4 type  1   force =     0.00000000    0.00000000    0.00000000
     atom    5 type  2   force =     0.00000000    0.00000000    0.00000000
     atom    6 type  2   force =     0.00000000    0.00000000    0.00000000
     atom    7 type  1   force =     0.00000000    0.00000000    0.00000000
     atom    8 type  1   force =     0.00000000    0.00000000    0.00000000
     atom    9 type  1   force =     0.00000000    0.00000000    0.00000000
     atom   10 type  3   force =     0.00000000    0.00000000    0.00000000
     atom   11 type  2   force =     0.00000000    0.00000000    0.00000000
     atom   12 type  2   force =     0.00000000    0.00000000    0.00000000
     atom   13 type  2   force =     0.00000000    0.00000000    0.00000000
     atom   14 type  2   force =     0.00000000    0.00000000    0.00000000
     atom   15 type  2   force =     0.00000000    0.00000000    0.00000000
     atom   16 type  2   force =     0.00000000    0.00000000    0.00000000
     The SCF correction term to forces
     atom    1 type  1   force =     0.00014556    0.00000000   -0.00000002
     atom    2 type  1   force =    -0.00000000    0.00000000   -0.00000000
     atom    3 type  1   force =    -0.00014556   -0.00000000    0.00000002
     atom    4 type  1   force =     0.00000000    0.00000000   -0.00000000
     atom    5 type  2   force =    -0.00011651    0.00007673    0.00001956
     atom    6 type  2   force =     0.00011652    0.00007673    0.00001956
     atom    7 type  1   force =     0.00000001    0.00012135    0.00040035
     atom    8 type  1   force =    -0.00000000   -0.00000000   -0.00000000
     atom    9 type  1   force =    -0.00000001   -0.00012135   -0.00040035
     atom   10 type  3   force =     0.00000000    0.00000000    0.00000000
     atom   11 type  2   force =    -0.00000000   -0.00002245   -0.00004179
     atom   12 type  2   force =     0.00000000   -0.00014216    0.00004486
     atom   13 type  2   force =     0.00000000    0.00002245    0.00004179
     atom   14 type  2   force =    -0.00000000    0.00014216   -0.00004486
     atom   15 type  2   force =     0.00011651   -0.00007673   -0.00001956
     atom   16 type  2   force =    -0.00011652   -0.00007673   -0.00001956

     Total force =     0.069540     Total SCF correction =     0.000722
     Energy error            =      8.2E-03 Ry
     Gradient error          =      2.8E-02 Ry/Bohr

     number of scf cycles    =   3
     number of bfgs steps    =   2

     energy             old  =   -2749.6905785390 Ry
     energy             new  =   -2749.6987496671 Ry

     CASE: energy            _new < energy            _old

     new trust radius        =       0.0675495064 bohr
     new conv_thr            =       0.0000002773 Ry


ATOMIC_POSITIONS (angstrom)
Ni           -1.8236469769        3.1573589245        2.5225330000
Ni           -1.8229020250        3.1573589245        5.0450660000
Ni           -1.8221570731        3.1573589245        7.5675990000
Ni           -1.8229020250        3.1573589245       10.0901320000
As           -1.8147048638        5.3429882998        6.3094501853
As           -1.8310992226        5.3429882998       11.3545161853
Ni            0.0000000000        0.0016130576        0.0498732429
Ni            0.0000000000       -0.0000000000        2.5225330000
Ni           -0.0000000000       -0.0016130576        4.9951927571
Mn            0.0000000000       -0.0000000000        7.5675990000
As           -0.0000000182        2.1421228823        6.3259402109
As           -0.0000000182        2.1395449812       11.3589078008
As            0.0000000182        4.1725949667        8.8092577891
As            0.0000000182        4.1751728678       13.8664221992
As            1.8147048638        0.9717295492        8.8257478147
As            1.8310992226        0.9717295492       13.8708138147



     Writing config-only to output data dir ./tutorial.save/
     NEW-OLD atomic charge density approx. for the potential

     Check: negative core charge=   -0.000023

     total cpu time spent up to now is       11.7 secs

     Self-consistent Calculation

     iteration #  1     ecut=    40.42 Ry     beta= 0.70
     Davidson diagonalization with overlap
     ethr =  1.00E-06,  avg # of iterations =  8.0

     total cpu time spent up to now is       12.1 secs

     total energy              =   -2749.67613037 Ry
     estimated scf accuracy    <       0.15828943 Ry

     iteration #  2     ecut=    40.42 Ry     beta= 0.70
     Davidson diagonalization with overlap
     ethr =  8.75E-05,  avg # of iterations =  3.0

     total cpu time spent up to now is       12.3 secs

     total energy              =   -2749.22439682 Ry
     estimated scf accuracy    <       6.03951044 Ry

     iteration #  3     ecut=    40.42 Ry     beta= 0.70
     Davidson diagonalization with overlap
     ethr =  8.75E-05,  avg # of iterations =  3.0

     total cpu time spent up to now is       12.5 secs

     total energy              =   -2749.51225774 Ry
     estimated scf accuracy    <       6.84353834 Ry

     iteration #  4     ecut=    40.42 Ry     beta= 0.70
     Davidson diagonalization with overlap
     ethr =  8.75E-05,  avg # of iterations =  3.0

     total cpu time spent up to now is       12.7 secs

     total energy              =   -2749.67922166 Ry
     estimated scf accuracy    <       0.81692311 Ry

     iteration #  5     ecut=    40.42 Ry     beta= 0.70
     Davidson diagonalization with overlap
     ethr =  8.75E-05,  avg # of iterations =  2.0

     total cpu time spent up to now is       12.9 secs

     total energy              =   -2749.70738746 Ry
     estimated scf accuracy    <       0.07649281 Ry

     iteration #  6     ecut=    40.42 Ry     beta= 0.70
     Davidson diagonalization with overlap
     ethr =  4.23E-05,  avg # of iterations =  1.0

     total cpu time spent up to now is       13.0 secs

     total energy              =   -2749.70791151 Ry
     estimated scf accuracy    <       0.05364068 Ry

     iteration #  7     ecut=    40.42 Ry     beta= 0.70
     Davidson diagonalization with overlap
     ethr =  2.96E-05,  avg # of iterations =  1.0

     total cpu time spent up to now is       13.2 secs

     total energy              =   -2749.70868815 Ry
     estimated scf accuracy    <       0.02632142 Ry

     iteration #  8     ecut=    40.42 Ry     beta= 0.70
     Davidson diagonalization with overlap
     ethr =  1.45E-05,  avg # of iterations =  1.0

     total cpu time spent up to now is       13.4 secs

     total energy              =   -2749.70811157 Ry
     estimated scf accuracy    <       0.02046306 Ry

     iteration #  9     ecut=    40.42 Ry     beta= 0.70
     Davidson diagonalization with overlap
     ethr =  1.13E-05,  avg # of iterations =  1.0

     total cpu time spent up to now is       13.5 secs

     total energy              =   -2749.70798054 Ry
     estimated scf accuracy    <       0.00646454 Ry

     iteration # 10     ecut=    40.42 Ry     beta= 0.70
     Davidson diagonalization with overlap
     ethr =  3.57E-06,  avg # of iterations =  1.0

     total cpu time spent up to now is       13.7 secs

     total energy              =   -2749.70826202 Ry
     estimated scf accuracy    <       0.00109780 Ry

     iteration # 11     ecut=    40.42 Ry     beta= 0.70
     Davidson diagonalization with overlap
     ethr =  6.07E-07,  avg # of iterations =  2.0

     total cpu time spent up to now is       13.8 secs

     total energy              =   -2749.70827101 Ry
     estimated scf accuracy    <       0.00022468 Ry

     iteration # 12     ecut=    40.42 Ry     beta= 0.70
     Davidson diagonalization with overlap
     ethr =  1.24E-07,  avg # of iterations =  2.0

     total cpu time spent up to now is       14.0 secs

     total energy              =   -2749.70827625 Ry
     estimated scf accuracy    <       0.00012920 Ry

     iteration # 13     ecut=    40.42 Ry     beta= 0.70
     Davidson diagonalization with overlap
     ethr =  7.14E-08,  avg # of iterations =  1.0

     total cpu time spent up to now is       14.2 secs

     total energy              =   -2749.70825046 Ry
     estimated scf accuracy    <       0.00092196 Ry

     iteration # 14     ecut=    40.42 Ry     beta= 0.70
     Davidson diagonalization with overlap
     ethr =  7.14E-08,  avg # of iterations =  2.0

     total cpu time spent up to now is       14.3 secs

     total energy              =   -2749.70823214 Ry
     estimated scf accuracy    <       0.00077714 Ry

     iteration # 15     ecut=    40.42 Ry     beta= 0.70
     Davidson diagonalization with overlap
     ethr =  7.14E-08,  avg # of iterations =  2.0

     total cpu time spent up to now is       14.5 secs

     total energy              =   -2749.70828400 Ry
     estimated scf accuracy    <       0.00012701 Ry

     iteration # 16     ecut=    40.42 Ry     beta= 0.70
     Davidson diagonalization with overlap
     ethr =  7.02E-08,  avg # of iterations =  1.0

     total cpu time spent up to now is       14.7 secs

     total energy              =   -2749.70828763 Ry
     estimated scf accuracy    <       0.00001577 Ry

     iteration # 17     ecut=    40.42 Ry     beta= 0.70
     Davidson diagonalization with overlap
     ethr =  8.71E-09,  avg # of iterations =  2.0

     total cpu time spent up to now is       14.8 secs

     total energy              =   -2749.70828878 Ry
     estimated scf accuracy    <       0.00000870 Ry

     iteration # 18     ecut=    40.42 Ry     beta= 0.70
     Davidson diagonalization with overlap
     ethr =  4.81E-09,  avg # of iterations =  1.0

     total cpu time spent up to now is       15.0 secs

     total energy              =   -2749.70828914 Ry
     estimated scf accuracy    <       0.00000094 Ry

     iteration # 19     ecut=    40.42 Ry     beta= 0.70
     Davidson diagonalization with overlap
     ethr =  5.19E-10,  avg # of iterations =  3.0

     total cpu time spent up to now is       15.2 secs

     total energy              =   -2749.70828694 Ry
     estimated scf accuracy    <       0.00002491 Ry

     iteration # 20     ecut=    40.42 Ry     beta= 0.70
     Davidson diagonalization with overlap
     ethr =  5.19E-10,  avg # of iterations =  4.0

     total cpu time spent up to now is       15.5 secs

     total energy              =   -2749.70828900 Ry
     estimated scf accuracy    <       0.00000588 Ry

     iteration # 21     ecut=    40.42 Ry     beta= 0.70
     Davidson diagonalization with overlap
     ethr =  5.19E-10,  avg # of iterations =  2.0

     total cpu time spent up to now is       15.6 secs

     End of self-consistent calculation

          k = 0.0000 0.0000 0.0000 (  6739 PWs)   bands (ev):

   -90.5726 -90.5725 -90.4295 -90.3612 -90.3604 -90.3373 -90.3370 -65.8927
   -50.6986 -50.6570 -50.5352 -50.4847 -50.4548 -50.4469 -50.4403 -50.4388
   -50.4211 -50.4067 -50.3954 -50.3891 -50.3791 -50.3765 -50.3615 -50.3369
   -50.2917 -50.1434 -50.1221 -50.1078 -50.0768 -35.0841 -34.7407 -34.6253
    -1.5079   1.0125   1.2166   1.2470   1.2905   1.3057   1.3145   2.1663
     6.0224   6.3185   6.6756   6.7251   6.7632   6.8086   8.2486   8.2657
     8.2773   8.2890   8.5631   8.6622   8.6987   8.7261   8.7590   9.3357
     9.4449   9.6157   9.7992   9.8059   9.8402   9.8410   9.8554  10.3818
    10.3833  10.7489  10.8349  10.8445  10.8520  10.8627  10.9204  11.0534
    11.0755  11.1551  11.1639  11.1968  11.3050  11.4245  11.4522  11.4768
    11.5101  11.5676  11.5836  11.6668  11.8881  12.0368  12.2187  12.2198
    12.2318  12.4465  12.7803  12.7819  12.8700  13.2100  13.2925  14.3851
    15.3970  15.5689  15.5799  15.6558  15.6776  15.9491  15.9835  16.1667
    16.7889  17.3870  18.0798  18.8381  18.9781

     the Fermi energy is    12.6779 ev

!    total energy              =   -2749.70828922 Ry
     estimated scf accuracy    <       0.00000006 Ry
     smearing contrib. (-TS)   =      -0.01833390 Ry
     internal energy E=F+TS    =   -2749.68995531 Ry

     The total energy is F=E-TS. E is the sum of the following terms:
     one-electron contribution =   -2040.24260092 Ry
     hartree contribution      =    1109.16142903 Ry
     xc contribution           =    -357.38836454 Ry
     ewald contribution        =   -1461.22041888 Ry

     convergence has been achieved in  21 iterations

     Forces acting on atoms (cartesian axes, Ry/au):

     atom    1 type  1   force =     0.00310051   -0.00000000    0.00000000
     atom    2 type  1   force =     0.00000000    0.00000000    0.00000000
     atom    3 type  1   force =    -0.00310051    0.00000000    0.00000000
     atom    4 type  1   force =     0.00000000    0.00000000    0.00000000
     atom    5 type  2   force =     0.00124934    0.01602664   -0.00290586
     atom    6 type  2   force =    -0.00124934    0.01602664   -0.00290586
     atom    7 type  1   force =     0.00000000    0.00491614    0.01779069
     atom    8 type  1   force =     0.00000000    0.00000000    0.00000000
     atom    9 type  1   force =     0.00000000   -0.00491614   -0.01779069
     atom   10 type  3   force =     0.00000000    0.00000000    0.00000000
     atom   11 type  2   force =     0.00000000    0.01025409    0.00580674
     atom   12 type  2   force =     0.00000000    0.01049971    0.00055283
     atom   13 type  2   force =     0.00000000   -0.01025409   -0.00580674
     atom   14 type  2   force =     0.00000000   -0.01049971   -0.00055283
     atom   15 type  2   force =    -0.00124934   -0.01602664    0.00290586
     atom   16 type  2   force =     0.00124934   -0.01602664    0.00290586
     The non-local contrib.  to forces
     atom    1 type  1   force =    -0.00473360    0.00000000    0.00000000
     atom    2 type  1   force =     0.00000000    0.00000000    0.00000000
     atom    3 type  1   force =     0.00473360    0.00000000    0.00000000
     atom    4 type  1   force =     0.00000000    0.00000000    0.00000000
     atom    5 type  2   force =    -0.01931210   -0.00076728    0.01165739
     atom    6 type  2   force =     0.01931210   -0.00076728    0.01165739
     atom    7 type  1   force =     0.00000000   -0.06380010   -0.01225770
     atom    8 type  1   force =     0.00000000    0.00000000    0.00000000
     atom    9 type  1   force =     0.00000000    0.06380010    0.01225770
     atom   10 type  3   force =     0.00000000    0.00000000    0.00000000
     atom   11 type  2   force =     0.00000000   -0.00143614   -0.03519103
     atom   12 type  2   force =     0.00000000    0.02150272    0.01386481
     atom   13 type  2   force =     0.00000000    0.00143614    0.03519103
     atom   14 type  2   force =     0.00000000   -0.02150272   -0.01386481
     atom   15 type  2   force =     0.01931210    0.00076728   -0.01165739
     atom   16 type  2   force =    -0.01931210    0.00076728   -0.01165739
     The ionic contribution  to forces
     atom    1 type  1   force =    -1.38035259   -0.00000000   -0.00000000
     atom    2 type  1   force =     0.00000000    0.00000000   -0.00000000
     atom    3 type  1   force =     1.38035259    0.00000000    0.00000000
     atom    4 type  1   force =    -0.00000000    0.00000000   -0.00000000
     atom    5 type  2   force =     1.14169750   -0.27753316    0.42473362
     atom    6 type  2   force =    -1.14169713   -0.27753313    0.42473365
     atom    7 type  1   force =    -0.00000001   -0.15309541   -5.63367521
     atom    8 type  1   force =    -0.00000000   -0.00000000   -0.00000000
     atom    9 type  1   force =     0.00000001    0.15309541    5.63367521
     atom   10 type  3   force =     0.00000000   -0.00000000   -0.00000000
     atom   11 type  2   force =     0.00000019   -1.29579361    0.43450172
     atom   12 type  2   force =     0.00000017   -0.19251191   -0.15168224
     atom   13 type  2   force =    -0.00000019    1.29579361   -0.43450172
     atom   14 type  2   force =    -0.00000017    0.19251191    0.15168224
     atom   15 type  2   force =    -1.14169750    0.27753316   -0.42473362
     atom   16 type  2   force =     1.14169713    0.27753313   -0.42473365
     The local contribution  to forces
     atom    1 type  1   force =     1.38861720    0.00000000    0.00000000
     atom    2 type  1   force =    -0.00000000    0.00000000   -0.00000000
     atom    3 type  1   force =    -1.38861720    0.00000000   -0.00000000
     atom    4 type  1   force =    -0.00000000    0.00000000   -0.00000000
     atom    5 type  2   force =    -1.12600977    0.28521354   -0.43936976
     atom    6 type  2   force =     1.12600936    0.28521351   -0.43936978
     atom    7 type  1   force =    -0.00000000    0.22064981    5.66356368
     atom    8 type  1   force =     0.00000000   -0.00000002   -0.00000000
     atom    9 type  1   force =     0.00000000   -0.22064984   -5.66356368
     atom   10 type  3   force =     0.00000000   -0.00000001    0.00000000
     atom   11 type  2   force =    -0.00000021    1.30573145   -0.40337445
     atom   12 type  2   force =    -0.00000019    0.18225130    0.14053904
     atom   13 type  2   force =     0.00000021   -1.30573145    0.40337445
     atom   14 type  2   force =     0.00000019   -0.18225130   -0.14053904
     atom   15 type  2   force =     1.12600977   -0.28521354    0.43936976
     atom   16 type  2   force =    -1.12600936   -0.28521351    0.43936978
     The core correction contribution to forces
     atom    1 type  1   force =    -0.00013981    0.00000038   -0.00000080
     atom    2 type  1   force =    -0.00000000   -0.00000000   -0.00000000
     atom    3 type  1   force =     0.00013981   -0.00000038    0.00000080
     atom    4 type  1   force =    -0.00000000   -0.00000000   -0.00000000
     atom    5 type  2   force =     0.00486827    0.00912146    0.00010440
     atom    6 type  2   force =    -0.00486839    0.00912129    0.00010357
     atom    7 type  1   force =     0.00000289    0.00136171    0.00034829
     atom    8 type  1   force =     0.00000000   -0.00000000   -0.00000000
     atom    9 type  1   force =    -0.00000289   -0.00136171   -0.00034829
     atom   10 type  3   force =    -0.00000000   -0.00000000    0.00000000
     atom   11 type  2   force =     0.00000001    0.00173678    0.00988731
     atom   12 type  2   force =     0.00000010   -0.00075612   -0.00212919
     atom   13 type  2   force =    -0.00000001   -0.00173678   -0.00988731
     atom   14 type  2   force =    -0.00000010    0.00075612    0.00212919
     atom   15 type  2   force =    -0.00486827   -0.00912146   -0.00010440
     atom   16 type  2   force =     0.00486839   -0.00912129   -0.00010357
     The Hubbard contrib.    to forces
     atom    1 type  1   force =     0.00000000    0.00000000    0.00000000
     atom    2 type  1   force =     0.00000000    0.00000000    0.00000000
     atom    3 type  1   force =     0.00000000    0.00000000    0.00000000
     atom    4 type  1   force =     0.00000000    0.00000000    0.00000000
     atom    5 type  2   force =     0.00000000    0.00000000    0.00000000
     atom    6 type  2   force =     0.00000000    0.00000000    0.00000000
     atom    7 type  1   force =     0.00000000    0.00000000    0.00000000
     atom    8 type  1   force =     0.00000000    0.00000000    0.00000000
     atom    9 type  1   force =     0.00000000    0.00000000    0.00000000
     atom   10 type  3   force =     0.00000000    0.00000000    0.00000000
     atom   11 type  2   force =     0.00000000    0.00000000    0.00000000
     atom   12 type  2   force =     0.00000000    0.00000000    0.00000000
     atom   13 type  2   force =     0.00000000    0.00000000    0.00000000
     atom   14 type  2   force =     0.00000000    0.00000000    0.00000000
     atom   15 type  2   force =     0.00000000    0.00000000    0.00000000
     atom   16 type  2   force =     0.00000000    0.00000000    0.00000000
     The SCF correction term to forces
     atom    1 type  1   force =    -0.00029068    0.00000001    0.00000002
     atom    2 type  1   force =    -0.00000000    0.00000000   -0.00000000
     atom    3 type  1   force =     0.00029068   -0.00000001   -0.00000002
     atom    4 type  1   force =    -0.00000000    0.00000000   -0.00000000
     atom    5 type  2   force =     0.00000535   -0.00000783   -0.00003110
     atom    6 type  2   force =    -0.00000535   -0.00000783   -0.00003110
     atom    7 type  1   force =    -0.00000002   -0.00019988   -0.00018836
     atom    8 type  1   force =     0.00000000    0.00000000    0.00000000
     atom    9 type  1   force =     0.00000002    0.00019988    0.00018836
     atom   10 type  3   force =    -0.00000000    0.00000000   -0.00000000
     atom   11 type  2   force =    -0.00000000    0.00001561   -0.00001681
     atom   12 type  2   force =     0.00000000    0.00001371   -0.00003959
     atom   13 type  2   force =     0.00000000   -0.00001561    0.00001681
     atom   14 type  2   force =    -0.00000000   -0.00001371    0.00003959
     atom   15 type  2   force =    -0.00000535    0.00000783    0.00003110
     atom   16 type  2   force =     0.00000535    0.00000783    0.00003110

     Total force =     0.047611     Total SCF correction =     0.000573
     Energy error            =      9.5E-03 Ry
     Gradient error          =      1.8E-02 Ry/Bohr

     number of scf cycles    =   4
     number of bfgs steps    =   3

     energy             old  =   -2749.6987496671 Ry
     energy             new  =   -2749.7082892197 Ry

     CASE: energy            _new < energy            _old

     new trust radius        =       0.1013242597 bohr
     new conv_thr            =       0.0000001779 Ry


ATOMIC_POSITIONS (angstrom)
Ni           -1.8198391166        3.1573589245        2.5225330000
Ni           -1.8229020250        3.1573589245        5.0450660000
Ni           -1.8259649334        3.1573589245        7.5675990000
Ni           -1.8229020250        3.1573589245       10.0901320000
As           -1.8097902330        5.3963170505        6.3068361582
As           -1.8360138534        5.3963170505       11.3519021582
Ni            0.0000000000        0.0085710785        0.0932323926
Ni            0.0000000000       -0.0000000000        2.5225330000
Ni           -0.0000000000       -0.0085710785        4.9518336074
Mn            0.0000000000       -0.0000000000        7.5675990000
As           -0.0000000182        2.1705137614        6.3413678791
As           -0.0000000182        2.1672680234       11.3625825307
As            0.0000000182        4.1442040876        8.7938301209
[...]

     iteration #  5     ecut=    40.42 Ry     beta= 0.70
     Davidson diagonalization with overlap
     ethr =  7.83E-07,  avg # of iterations =  1.0

     total cpu time spent up to now is      175.9 secs

     total energy              =   -2749.72684890 Ry
     estimated scf accuracy    <       0.00029989 Ry

     iteration #  6     ecut=    40.42 Ry     beta= 0.70
     Davidson diagonalization with overlap
     ethr =  1.66E-07,  avg # of iterations =  1.0

     total cpu time spent up to now is      176.0 secs

     total energy              =   -2749.72685353 Ry
     estimated scf accuracy    <       0.00021463 Ry

     iteration #  7     ecut=    40.42 Ry     beta= 0.70
     Davidson diagonalization with overlap
     ethr =  1.19E-07,  avg # of iterations =  1.0

     total cpu time spent up to now is      176.2 secs

     total energy              =   -2749.72685343 Ry
     estimated scf accuracy    <       0.00015481 Ry

     iteration #  8     ecut=    40.42 Ry     beta= 0.70
     Davidson diagonalization with overlap
     ethr =  8.55E-08,  avg # of iterations =  1.0

     total cpu time spent up to now is      176.3 secs

     total energy              =   -2749.72685507 Ry
     estimated scf accuracy    <       0.00005450 Ry

     iteration #  9     ecut=    40.42 Ry     beta= 0.70
     Davidson diagonalization with overlap
     ethr =  3.01E-08,  avg # of iterations =  1.0

     total cpu time spent up to now is      176.5 secs

     total energy              =   -2749.72685594 Ry
     estimated scf accuracy    <       0.00001895 Ry

     iteration # 10     ecut=    40.42 Ry     beta= 0.70
     Davidson diagonalization with overlap
     ethr =  1.05E-08,  avg # of iterations =  1.0

     total cpu time spent up to now is      176.7 secs

     total energy              =   -2749.72685662 Ry
     estimated scf accuracy    <       0.00000581 Ry

     iteration # 11     ecut=    40.42 Ry     beta= 0.70
     Davidson diagonalization with overlap
     ethr =  3.21E-09,  avg # of iterations =  1.0

     total cpu time spent up to now is      176.8 secs

     total energy              =   -2749.72685663 Ry
     estimated scf accuracy    <       0.00000534 Ry

     iteration # 12     ecut=    40.42 Ry     beta= 0.70
     Davidson diagonalization with overlap
     ethr =  2.95E-09,  avg # of iterations =  1.0

     total cpu time spent up to now is      177.0 secs

     total energy              =   -2749.72685662 Ry
     estimated scf accuracy    <       0.00000106 Ry

     iteration # 13     ecut=    40.42 Ry     beta= 0.70
     Davidson diagonalization with overlap
     ethr =  5.86E-10,  avg # of iterations =  3.0

     total cpu time spent up to now is      177.2 secs

     total energy              =   -2749.72685515 Ry
     estimated scf accuracy    <       0.00005773 Ry

     iteration # 14     ecut=    40.42 Ry     beta= 0.70
     Davidson diagonalization with overlap
     ethr =  5.86E-10,  avg # of iterations =  3.0

     total cpu time spent up to now is      177.4 secs

     total energy              =   -2749.72685636 Ry
     estimated scf accuracy    <       0.00000320 Ry

     iteration # 15     ecut=    40.42 Ry     beta= 0.70
     Davidson diagonalization with overlap
     ethr =  5.86E-10,  avg # of iterations =  2.0

     total cpu time spent up to now is      177.5 secs

     total energy              =   -2749.72685654 Ry
     estimated scf accuracy    <       0.00000231 Ry

     iteration # 16     ecut=    40.42 Ry     beta= 0.70
     Davidson diagonalization with overlap
     ethr =  5.86E-10,  avg # of iterations =  2.0

     total cpu time spent up to now is      177.7 secs

     total energy              =   -2749.72685653 Ry
     estimated scf accuracy    <       0.00000183 Ry

     iteration # 17     ecut=    40.42 Ry     beta= 0.70
     Davidson diagonalization with overlap
     ethr =  5.86E-10,  avg # of iterations =  2.0

     total cpu time spent up to now is      177.9 secs

     total energy              =   -2749.72685659 Ry
     estimated scf accuracy    <       0.00000147 Ry

     iteration # 18     ecut=    40.42 Ry     beta= 0.70
     Davidson diagonalization with overlap
     ethr =  5.86E-10,  avg # of iterations =  2.0

     total cpu time spent up to now is      178.0 secs

     total energy              =   -2749.72685668 Ry
     estimated scf accuracy    <       0.00000029 Ry

     iteration # 19     ecut=    40.42 Ry     beta= 0.70
     Davidson diagonalization with overlap
     ethr =  1.59E-10,  avg # of iterations =  2.0

     total cpu time spent up to now is      178.2 secs

     total energy              =   -2749.72685669 Ry
     estimated scf accuracy    <       0.00000016 Ry

     iteration # 20     ecut=    40.42 Ry     beta= 0.70
     Davidson diagonalization with overlap
     ethr =  8.66E-11,  avg # of iterations =  1.0

     total cpu time spent up to now is      178.4 secs

     total energy              =   -2749.72685671 Ry
     estimated scf accuracy    <       0.00000001 Ry

     iteration # 21     ecut=    40.42 Ry     beta= 0.70
     Davidson diagonalization with overlap
     ethr =  7.37E-12,  avg # of iterations =  2.0

     total cpu time spent up to now is      178.5 secs

     total energy              =   -2749.72685671 Ry
     estimated scf accuracy    <       0.00000001 Ry

     iteration # 22     ecut=    40.42 Ry     beta= 0.70
     Davidson diagonalization with overlap
     ethr =  6.42E-12,  avg # of iterations =  2.0

     total cpu time spent up to now is      178.7 secs

     End of self-consistent calculation

          k = 0.0000 0.0000 0.0000 (  6739 PWs)   bands (ev):

   -90.7114 -90.7105 -90.6468 -90.6467 -90.5501 -90.5497 -90.4897 -66.0358
   -50.8416 -50.7763 -50.7642 -50.7387 -50.7227 -50.7142 -50.7052 -50.6614
   -50.6560 -50.5897 -50.5896 -50.5749 -50.5064 -50.4974 -50.4779 -50.4542
   -50.4357 -50.4053 -50.3319 -50.2383 -50.2152 -35.1601 -34.9343 -34.7504
    -1.5293   0.9858   1.1155   1.1513   1.1574   1.3789   1.4331   2.2150
     5.9651   6.5884   6.6829   6.7310   6.7882   6.9422   8.0630   8.0787
     8.1637   8.2816   8.3631   8.4834   8.5173   8.6016   8.7719   9.2899
     9.4127   9.5664   9.6163   9.6635   9.7471   9.7897   9.8504  10.2082
    10.2988  10.5555  10.5579  10.5684  10.7370  10.7750  10.8063  10.8463
    10.8636  10.9508  10.9983  11.1430  11.1937  11.2043  11.2506  11.3665
    11.4027  11.4809  11.5810  11.6105  11.6983  11.8741  11.9087  11.9512
    12.0396  12.4042  12.7466  12.7529  12.8676  13.0377  13.7659  14.0014
    15.2381  15.4820  15.5644  15.6825  15.7087  15.9609  16.0740  16.2843
    16.7397  17.2582  18.0888  18.7270  18.9659

     the Fermi energy is    12.6492 ev

!    total energy              =   -2749.72685671 Ry
     estimated scf accuracy    <          2.2E-09 Ry
     smearing contrib. (-TS)   =      -0.01744124 Ry
     internal energy E=F+TS    =   -2749.70941547 Ry

     The total energy is F=E-TS. E is the sum of the following terms:
     one-electron contribution =   -2048.26354765 Ry
     hartree contribution      =    1112.30242626 Ry
     xc contribution           =    -357.37818314 Ry
     ewald contribution        =   -1456.37011094 Ry

     convergence has been achieved in  22 iterations

     Forces acting on atoms (cartesian axes, Ry/au):

     atom    1 type  1   force =    -0.00071120    0.00000000    0.00000000
     atom    2 type  1   force =     0.00000000    0.00000000    0.00000000
     atom    3 type  1   force =     0.00071120    0.00000000    0.00000000
     atom    4 type  1   force =     0.00000000    0.00000000    0.00000000
     atom    5 type  2   force =    -0.00017183    0.00020941   -0.00022897
     atom    6 type  2   force =     0.00017183    0.00020941   -0.00022897
     atom    7 type  1   force =     0.00000000   -0.00041685   -0.00060400
     atom    8 type  1   force =     0.00000000    0.00000000    0.00000000
     atom    9 type  1   force =    -0.00000000    0.00041685    0.00060400
     atom   10 type  3   force =     0.00000000    0.00000000    0.00000000
     atom   11 type  2   force =    -0.00000000    0.00011939   -0.00058790
     atom   12 type  2   force =     0.00000000   -0.00009571    0.00031797
     atom   13 type  2   force =     0.00000000   -0.00011939    0.00058790
     atom   14 type  2   force =     0.00000000    0.00009571   -0.00031797
     atom   15 type  2   force =     0.00017183   -0.00020941    0.00022897
     atom   16 type  2   force =    -0.00017183   -0.00020941    0.00022897
     The non-local contrib.  to forces
     atom    1 type  1   force =    -0.00204438   -0.00000000    0.00000000
     atom    2 type  1   force =     0.00000000    0.00000000    0.00000000
     atom    3 type  1   force =     0.00204438    0.00000000    0.00000000
     atom    4 type  1   force =     0.00000000    0.00000000    0.00000000
     atom    5 type  2   force =    -0.02872717    0.00636608    0.00918016
     atom    6 type  2   force =     0.02872717    0.00636608    0.00918016
     atom    7 type  1   force =     0.00000000   -0.02396700    0.02019153
     atom    8 type  1   force =     0.00000000    0.00000000    0.00000000
     atom    9 type  1   force =     0.00000000    0.02396700   -0.02019153
     atom   10 type  3   force =     0.00000000    0.00000000    0.00000000
     atom   11 type  2   force =     0.00000000    0.04737480   -0.01929361
     atom   12 type  2   force =     0.00000000    0.01535613    0.01353150
     atom   13 type  2   force =     0.00000000   -0.04737480    0.01929361
     atom   14 type  2   force =     0.00000000   -0.01535613   -0.01353150
     atom   15 type  2   force =     0.02872717   -0.00636608   -0.00918016
     atom   16 type  2   force =    -0.02872717   -0.00636608   -0.00918016
     The ionic contribution  to forces
     atom    1 type  1   force =    -2.91895522   -0.00000000    0.00000001
     atom    2 type  1   force =     0.00000000    0.00000000   -0.00000000
     atom    3 type  1   force =     2.91895522    0.00000000   -0.00000001
     atom    4 type  1   force =    -0.00000000    0.00000000    0.00000000
     atom    5 type  2   force =     0.85367168   -0.61872211    0.45328549
     atom    6 type  2   force =    -0.85367128   -0.61872204    0.45328558
     atom    7 type  1   force =     0.00000004   -2.66988003   -9.79876387
     atom    8 type  1   force =    -0.00000000   -0.00000000   -0.00000000
     atom    9 type  1   force =    -0.00000004    2.66988003    9.79876387
     atom   10 type  3   force =     0.00000000   -0.00000000   -0.00000000
     atom   11 type  2   force =     0.00000022   -2.69661878   -0.45051396
     atom   12 type  2   force =     0.00000018    0.44506371    0.34355545
     atom   13 type  2   force =    -0.00000022    2.69661878    0.45051396
     atom   14 type  2   force =    -0.00000018   -0.44506371   -0.34355545
     atom   15 type  2   force =    -0.85367168    0.61872211   -0.45328549
     atom   16 type  2   force =     0.85367128    0.61872204   -0.45328558
     The local contribution  to forces
     atom    1 type  1   force =     2.91961045    0.00000000    0.00000000
     atom    2 type  1   force =    -0.00000000    0.00000000   -0.00000000
     atom    3 type  1   force =    -2.91961045    0.00000000   -0.00000000
     atom    4 type  1   force =    -0.00000000    0.00000000    0.00000000
     atom    5 type  2   force =    -0.83372531    0.60146033   -0.46122815
     atom    6 type  2   force =     0.83372486    0.60146026   -0.46122824
     atom    7 type  1   force =     0.00000000    2.69515089    9.77938108
     atom    8 type  1   force =     0.00000000   -0.00000002   -0.00000000
     atom    9 type  1   force =    -0.00000000   -2.69515092   -9.77938108
     atom   10 type  3   force =     0.00000000   -0.00000001    0.00000000
     atom   11 type  2   force =    -0.00000024    2.64945283    0.45614291
     atom   12 type  2   force =    -0.00000020   -0.45772434   -0.35167517
     atom   13 type  2   force =     0.00000024   -2.64945283   -0.45614291
     atom   14 type  2   force =     0.00000020    0.45772434    0.35167517
     atom   15 type  2   force =     0.83372531   -0.60146033    0.46122815
     atom   16 type  2   force =    -0.83372486   -0.60146026    0.46122824
     The core correction contribution to forces
     atom    1 type  1   force =     0.00069347   -0.00000168    0.00001309
     atom    2 type  1   force =    -0.00000000   -0.00000000   -0.00000000
     atom    3 type  1   force =    -0.00069347    0.00000168   -0.00001309
     atom    4 type  1   force =    -0.00000000   -0.00000000    0.00000000
     atom    5 type  2   force =     0.00860935    0.01110467   -0.00146763
     atom    6 type  2   force =    -0.00860932    0.01110457   -0.00146784
     atom    7 type  1   force =    -0.00000461   -0.00176110   -0.00142292
     atom    8 type  1   force =     0.00000000   -0.00000000   -0.00000000
     atom    9 type  1   force =     0.00000461    0.00176110    0.00142292
     atom   10 type  3   force =    -0.00000000   -0.00000000    0.00000000
     atom   11 type  2   force =    -0.00000020   -0.00008889    0.01307590
     atom   12 type  2   force =    -0.00000004   -0.00279116   -0.00509451
     atom   13 type  2   force =     0.00000020    0.00008889   -0.01307590
     atom   14 type  2   force =     0.00000004    0.00279116    0.00509451
     atom   15 type  2   force =    -0.00860935   -0.01110467    0.00146763
     atom   16 type  2   force =     0.00860932   -0.01110457    0.00146784
     The Hubbard contrib.    to forces
     atom    1 type  1   force =     0.00000000    0.00000000    0.00000000
     atom    2 type  1   force =     0.00000000    0.00000000    0.00000000
     atom    3 type  1   force =     0.00000000    0.00000000    0.00000000
     atom    4 type  1   force =     0.00000000    0.00000000    0.00000000
     atom    5 type  2   force =     0.00000000    0.00000000    0.00000000
     atom    6 type  2   force =     0.00000000    0.00000000    0.00000000
     atom    7 type  1   force =     0.00000000    0.00000000    0.00000000
     atom    8 type  1   force =     0.00000000    0.00000000    0.00000000
     atom    9 type  1   force =     0.00000000    0.00000000    0.00000000
     atom   10 type  3   force =     0.00000000    0.00000000    0.00000000
     atom   11 type  2   force =     0.00000000    0.00000000    0.00000000
     atom   12 type  2   force =     0.00000000    0.00000000    0.00000000
     atom   13 type  2   force =     0.00000000    0.00000000    0.00000000
     atom   14 type  2   force =     0.00000000    0.00000000    0.00000000
     atom   15 type  2   force =     0.00000000    0.00000000    0.00000000
     atom   16 type  2   force =     0.00000000    0.00000000    0.00000000
     The SCF correction term to forces
     atom    1 type  1   force =    -0.00001551   -0.00000000    0.00000001
     atom    2 type  1   force =     0.00000000    0.00000000    0.00000000
     atom    3 type  1   force =     0.00001551    0.00000000   -0.00000001
     atom    4 type  1   force =     0.00000000   -0.00000000   -0.00000000
     atom    5 type  2   force =    -0.00000039    0.00000048    0.00000126
     atom    6 type  2   force =     0.00000039    0.00000048    0.00000126
     atom    7 type  1   force =     0.00000002    0.00004038    0.00001018
     atom    8 type  1   force =     0.00000000    0.00000000   -0.00000000
     atom    9 type  1   force =    -0.00000002   -0.00004038   -0.00001018
     atom   10 type  3   force =    -0.00000000   -0.00000000   -0.00000000
     atom   11 type  2   force =    -0.00000000   -0.00000057    0.00000086
     atom   12 type  2   force =    -0.00000000   -0.00000005    0.00000069
     atom   13 type  2   force =     0.00000000    0.00000057   -0.00000086
     atom   14 type  2   force =     0.00000000    0.00000005   -0.00000069
     atom   15 type  2   force =     0.00000039   -0.00000048   -0.00000126
     atom   16 type  2   force =    -0.00000039   -0.00000048   -0.00000126

     Total force =     0.001879     Total SCF correction =     0.000063
     Energy error            =      3.8E-05 Ry
     Gradient error          =      7.1E-04 Ry/Bohr

     bfgs converged in  36 scf cycles and  25 bfgs steps
     (criteria: energy <  1.0E-04 Ry, force <  1.0E-03 Ry/Bohr)

     End of BFGS Geometry Optimization

     Final energy             =   -2749.7268567084 Ry

     File ./tutorial.bfgs deleted, as requested
Begin final coordinates

ATOMIC_POSITIONS (angstrom)
Ni           -1.7989356375        3.1573589245        2.5225330000
Ni           -1.8229020250        3.1573589245        5.0450660000
Ni           -1.8468684125        3.1573589245        7.5675990000
Ni           -1.8229020250        3.1573589245       10.0901320000
As           -1.8373568751        5.4126132858        6.2708982140
As           -1.8084472113        5.4126132858       11.3159642140
Ni           -0.0000000000        0.2466162942        0.1326847126
Ni            0.0000000000       -0.0000000000        2.5225330000
Ni            0.0000000000       -0.2466162942        4.9123812874
Mn            0.0000000000       -0.0000000000        7.5675990000
As           -0.0000000182        2.1878663936        6.4062074433
As           -0.0000000182        2.2351896825       11.3834579022
As            0.0000000182        4.1268514554        8.7289905567
As            0.0000000182        4.0795281665       13.8418720978
As            1.8373568751        0.9021045632        8.8642997860
As            1.8084472113        0.9021045632       13.9093657860
End final coordinates



     Writing all to output data dir ./tutorial.save/
 
     init_run     :      0.25s CPU      0.27s WALL (       1 calls)
     electrons    :    162.73s CPU    168.92s WALL (      36 calls)
     update_pot   :      3.93s CPU      3.97s WALL (      35 calls)
     forces       :      4.09s CPU      4.34s WALL (      36 calls)

     Called by init_run:
     wfcinit      :      0.05s CPU      0.06s WALL (       1 calls)
     potinit      :      0.04s CPU      0.04s WALL (       1 calls)
     hinit0       :      0.12s CPU      0.13s WALL (       1 calls)

     Called by electrons:
     c_bands      :    115.39s CPU    118.73s WALL (     939 calls)
     sum_band     :     28.91s CPU     30.89s WALL (     939 calls)
     v_of_rho     :      4.35s CPU      4.41s WALL (     975 calls)
     newd         :     13.78s CPU     13.87s WALL (     975 calls)
     mix_rho      :      0.65s CPU      0.66s WALL (     939 calls)

     Called by c_bands:
     init_us_2    :      0.48s CPU      0.57s WALL (    1879 calls)
     init_us_2:cp :      0.47s CPU      0.57s WALL (    1879 calls)
     cegterg      :    112.54s CPU    115.58s WALL (     939 calls)

     Called by *egterg:
     cdiaghg      :     34.37s CPU     35.53s WALL (    2838 calls)
     h_psi        :     58.90s CPU     60.54s WALL (    2874 calls)
     s_psi        :      3.49s CPU      3.52s WALL (    2874 calls)
     g_psi        :      0.23s CPU      0.23s WALL (    1934 calls)

     Called by h_psi:
     h_psi:calbec :      3.83s CPU      3.88s WALL (    2874 calls)
     vloc_psi     :     51.44s CPU     53.01s WALL (    2874 calls)
     add_vuspsi   :      3.29s CPU      3.32s WALL (    2874 calls)

     General routines
     calbec       :      5.70s CPU      5.78s WALL (    3957 calls)
     fft          :      2.37s CPU      2.43s WALL (   11156 calls)
     ffts         :      0.24s CPU      0.25s WALL (     939 calls)
     fftw         :     56.65s CPU     58.37s WALL (  556769 calls)
 
     Parallel routines
 
     PWSCF        :   2m52.02s CPU   2m58.93s WALL

 
   This run was terminated on:  15: 4: 2  30May2023            

=------------------------------------------------------------------------------=
   JOB DONE.
=------------------------------------------------------------------------------=
