
     Program PWSCF v.7.2 starts on 30May2023 at 14:56:36 

     This program is part of the open-source Quantum ESPRESSO suite
     for quantum simulation of materials; please cite
         "P. Giannozzi et al., J. Phys.:Condens. Matter 21 395502 (2009);
         "P. Giannozzi et al., J. Phys.:Condens. Matter 29 465901 (2017);
         "P. Giannozzi et al., J. Chem. Phys. 152 154105 (2020);
          URL http://www.quantum-espresso.org", 
     in publications or presentations arising from this work. More details at
     http://www.quantum-espresso.org/quote

     Parallel version (MPI), running on    28 processors

     MPI processes distributed on     1 nodes
     36851 MiB available memory on the printing compute node when the environment starts
 
     Waiting for input...
     Reading input from standard input
Warning: card &CELL ignored
Warning: card / ignored

     Current dimensions of program PWSCF are:
     Max number of different atomic species (ntypx) = 10
     Max number of k-points (npk) =  40000
     Max angular momentum in pseudopotentials (lmaxx) =  4
     file Mn.pbesol-spn-rrkjus_psl.0.3.1.UPF: wavefunction(s)  3D renormalized
     Message from routine setup:
     using ibrav=0 with symmetry is DISCOURAGED, use correct ibrav instead
 
     R & G space division:  proc/nbgrp/npool/nimage =      28
     Subspace diagonalization in iterative solution of the eigenvalue problem:
     one sub-group per band group will be used
     scalapack distributed-memory algorithm (size of sub-group:  2*  2 procs)

 
     Parallelization info
     --------------------
     sticks:   dense  smooth     PW     G-vecs:    dense   smooth      PW
     Min          75      75     18                 3883     3883     482
     Max          76      76     19                 3886     3886     489
     Sum        2103    2103    517               108743   108743   13551
 
     Using Slab Decomposition
 


     bravais-lattice index     =            0
     lattice parameter (alat)  =      24.8407  a.u.
     unit-cell volume          =    3135.2395 (a.u.)^3
     number of atoms/cell      =           32
     number of atomic types    =            3
     number of electrons       =       353.00
     number of Kohn-Sham states=          212
     kinetic-energy cutoff     =      40.4242  Ry
     charge density cutoff     =     161.6969  Ry
     scf convergence threshold =      1.0E-06
     mixing beta               =       0.7000
     number of iterations used =            8  plain     mixing
     energy convergence thresh.=      1.0E-04
     force convergence thresh. =      1.0E-03
     Exchange-correlation= PBESOL
                           (   1   4  10   8   0   0   0)
     nstep                     =           50


     celldm(1)=  24.840702  celldm(2)=   0.000000  celldm(3)=   0.000000
     celldm(4)=   0.000000  celldm(5)=   0.000000  celldm(6)=   0.000000

     crystal axes: (cart. coord. in units of alat)
               a(1) = (   0.970725   0.240192   0.000000 )  
               a(2) = (  -0.138675   0.240192   0.000000 )  
               a(3) = (   0.000000   0.000000   0.767594 )  

     reciprocal axes: (cart. coord. in units 2 pi/alat)
               b(1) = (  0.901388  0.520416  0.000000 )  
               b(2) = ( -0.901388  3.642915  0.000000 )  
               b(3) = (  0.000000  0.000000  1.302771 )  


     PseudoPot. # 1 for Ni read from file:
     /home/valmzztt/Intermetallic_alloys/pseudos/Ni.pbesol-spn-rrkjus_psl.1.0.0.UPF
     MD5 check sum: 6fc0a587bf949a08f2faed986b854013
     Pseudo is Ultrasoft + core correction, Zval = 18.0
     Generated using &quot;atomic&quot; code by A. Dal Corso  v.6.3
     Using radial grid of 1195 points,  6 beta functions with: 
                l(1) =   0
                l(2) =   0
                l(3) =   1
                l(4) =   1
                l(5) =   2
                l(6) =   2
     Q(r) pseudized with 0 coefficients 


     PseudoPot. # 2 for Mn read from file:
     /home/valmzztt/Intermetallic_alloys/pseudos/Mn.pbesol-spn-rrkjus_psl.0.3.1.UPF
     MD5 check sum: 61e28eea34dae291f95a967fe31318f1
     Pseudo is Ultrasoft + core correction, Zval = 15.0
     Generated using &quot;atomic&quot; code by A. Dal Corso  v.6.3
     Using radial grid of 1187 points,  6 beta functions with: 
                l(1) =   0
                l(2) =   0
                l(3) =   1
                l(4) =   1
                l(5) =   2
                l(6) =   2
     Q(r) pseudized with 0 coefficients 


     PseudoPot. # 3 for As read from file:
     /home/valmzztt/Intermetallic_alloys/pseudos/As.pbesol-n-rrkjus_psl.1.0.0.UPF
     MD5 check sum: 2fb13bbab3d0b4e108be5408f3d6fe7c
     Pseudo is Ultrasoft + core correction, Zval =  5.0
     Generated using &quot;atomic&quot; code by A. Dal Corso  v.6.3
     Using radial grid of 1209 points,  4 beta functions with: 
                l(1) =   0
                l(2) =   0
                l(3) =   1
                l(4) =   1
     Q(r) pseudized with 0 coefficients 


     atomic species   valence    mass     pseudopotential
        Ni            18.00    58.69340     Ni( 1.00)
        Mn            15.00    54.93804     Mn( 1.00)
        As             5.00    74.92159     As( 1.00)

      2 Sym. Ops. (no inversion) found



   Cartesian axes

     site n.     atom                  positions (alat units)
         1           Ni  tau(   1) = (   0.0000000   0.0000000   0.0000000  )
         2           Mn  tau(   2) = (   0.0000000   0.0000000   0.1918986  )
         3           Ni  tau(   3) = (   0.0000000   0.0000000   0.3837972  )
         4           Mn  tau(   4) = (   0.0000000   0.0000000   0.5756959  )
         5           As  tau(   5) = (  -0.0000000   0.1601282   0.0959493  )
         6           As  tau(   6) = (  -0.0000000   0.1601282   0.4797466  )
         7           As  tau(   7) = (   0.1386751   0.0800641   0.2878479  )
         8           As  tau(   8) = (   0.1386751   0.0800641   0.6716452  )
         9           Ni  tau(   9) = (   0.1386750   0.2401922   0.0000000  )
        10           Mn  tau(  10) = (   0.1386750   0.2401922   0.1918986  )
        11           Ni  tau(  11) = (   0.1386750   0.2401922   0.3837972  )
        12           Mn  tau(  12) = (   0.1386750   0.2401922   0.5756959  )
        13           As  tau(  13) = (   0.2773501   0.1601282   0.0959493  )
        14           As  tau(  14) = (   0.2773501   0.1601282   0.4797466  )
        15           As  tau(  15) = (   0.2773501   0.3202563   0.2878479  )
        16           As  tau(  16) = (   0.2773501   0.3202563   0.6716452  )
        17           Ni  tau(  17) = (   0.4160251   0.2401922   0.0000000  )
        18           Mn  tau(  18) = (   0.4160251   0.2401922   0.1918986  )
        19           Ni  tau(  19) = (   0.4160251   0.2401922   0.3837972  )
        20           Ni  tau(  20) = (   0.4160251   0.2401922   0.5756959  )
        21           As  tau(  21) = (   0.5547002   0.1601282   0.0959493  )
        22           As  tau(  22) = (   0.5547002   0.1601282   0.4797466  )
        23           As  tau(  23) = (   0.5547002   0.3202563   0.2878479  )
        24           As  tau(  24) = (   0.5547002   0.3202563   0.6716452  )
        25           Ni  tau(  25) = (   0.6933752   0.2401922   0.0000000  )
        26           Ni  tau(  26) = (   0.6933752   0.2401922   0.1918986  )
        27           Ni  tau(  27) = (   0.6933752   0.2401922   0.3837972  )
        28           Ni  tau(  28) = (   0.6933752   0.2401922   0.5756959  )
        29           As  tau(  29) = (   0.6933752   0.4003204   0.0959493  )
        30           As  tau(  30) = (   0.6933752   0.4003204   0.4797466  )
        31           As  tau(  31) = (   0.8320503   0.3202563   0.2878479  )
        32           As  tau(  32) = (   0.8320503   0.3202563   0.6716452  )

     number of k points=     1  Gaussian smearing, width (Ry)=  0.0147
                       cart. coord. in units 2pi/alat
        k(    1) = (   0.0000000   0.0000000   0.0000000), wk =   2.0000000

     Dense  grid:   108743 G-vectors     FFT dimensions: ( 108,  27,  80)

     Estimated max dynamical RAM per process >      24.01 MB

     Estimated total dynamical RAM >     672.33 MB

     Check: negative core charge=   -0.000040

     Initial potential from superposition of free atoms

     starting charge     352.9916, renormalised to     353.0000
     Starting wfcs are  224 randomized atomic wfcs

     total cpu time spent up to now is        0.8 secs

     Self-consistent Calculation

     iteration #  1     ecut=    40.42 Ry     beta= 0.70
     Davidson diagonalization with overlap
     ethr =  1.00E-02,  avg # of iterations =  4.0

     total cpu time spent up to now is        1.6 secs

     total energy              =   -5109.44981848 Ry
     estimated scf accuracy    <      15.53024157 Ry

     iteration #  2     ecut=    40.42 Ry     beta= 0.70
     Davidson diagonalization with overlap
     ethr =  4.40E-03,  avg # of iterations =  6.0

     total cpu time spent up to now is        2.7 secs

     total energy              =   -5072.71326023 Ry
     estimated scf accuracy    <    1091.30796188 Ry

     iteration #  3     ecut=    40.42 Ry     beta= 0.70
     Davidson diagonalization with overlap
     ethr =  4.40E-03,  avg # of iterations =  9.0

     total cpu time spent up to now is        4.1 secs

     total energy              =   -5092.64782194 Ry
     estimated scf accuracy    <     725.76613278 Ry

     iteration #  4     ecut=    40.42 Ry     beta= 0.70
     Davidson diagonalization with overlap
     ethr =  4.40E-03,  avg # of iterations =  6.0

     total cpu time spent up to now is        5.3 secs

     total energy              =   -5120.44249191 Ry
     estimated scf accuracy    <      78.66781154 Ry

     iteration #  5     ecut=    40.42 Ry     beta= 0.70
     Davidson diagonalization with overlap
     ethr =  4.40E-03,  avg # of iterations =  2.0

     total cpu time spent up to now is        5.8 secs

     total energy              =   -5121.26212142 Ry
     estimated scf accuracy    <      35.02283512 Ry

     iteration #  6     ecut=    40.42 Ry     beta= 0.70
     Davidson diagonalization with overlap
     ethr =  4.40E-03,  avg # of iterations =  1.0

     total cpu time spent up to now is        6.3 secs

     total energy              =   -5121.45038822 Ry
     estimated scf accuracy    <      23.57345074 Ry

     iteration #  7     ecut=    40.42 Ry     beta= 0.70
     Davidson diagonalization with overlap
     ethr =  4.40E-03,  avg # of iterations =  2.0

     total cpu time spent up to now is        6.8 secs

     total energy              =   -5121.19395540 Ry
     estimated scf accuracy    <      15.52432510 Ry

     iteration #  8     ecut=    40.42 Ry     beta= 0.70
     Davidson diagonalization with overlap
     ethr =  4.40E-03,  avg # of iterations =  1.0

     total cpu time spent up to now is        7.3 secs

     total energy              =   -5120.89418075 Ry
     estimated scf accuracy    <      20.06762228 Ry

     iteration #  9     ecut=    40.42 Ry     beta= 0.70
     Davidson diagonalization with overlap
     ethr =  4.40E-03,  avg # of iterations =  2.0

     total cpu time spent up to now is        7.9 secs

     total energy              =   -5120.99011259 Ry
     estimated scf accuracy    <       3.32529406 Ry

     iteration # 10     ecut=    40.42 Ry     beta= 0.70
     Davidson diagonalization with overlap
     ethr =  9.42E-04,  avg # of iterations =  3.0

     total cpu time spent up to now is        8.5 secs

     total energy              =   -5120.97948417 Ry
     estimated scf accuracy    <       7.94891986 Ry

     iteration # 11     ecut=    40.42 Ry     beta= 0.70
     Davidson diagonalization with overlap
     ethr =  9.42E-04,  avg # of iterations =  2.0

     total cpu time spent up to now is        9.0 secs

     total energy              =   -5120.93565696 Ry
     estimated scf accuracy    <      12.02411416 Ry

     iteration # 12     ecut=    40.42 Ry     beta= 0.70
     Davidson diagonalization with overlap
     ethr =  9.42E-04,  avg # of iterations =  1.0

     total cpu time spent up to now is        9.5 secs

     total energy              =   -5121.13873309 Ry
     estimated scf accuracy    <       3.73029013 Ry

     iteration # 13     ecut=    40.42 Ry     beta= 0.70
     Davidson diagonalization with overlap
     ethr =  9.42E-04,  avg # of iterations =  1.0

     total cpu time spent up to now is       10.0 secs

     total energy              =   -5121.04407354 Ry
     estimated scf accuracy    <       7.93354734 Ry

     iteration # 14     ecut=    40.42 Ry     beta= 0.70
     Davidson diagonalization with overlap
     ethr =  9.42E-04,  avg # of iterations =  1.0

     total cpu time spent up to now is       10.4 secs

     total energy              =   -5121.21856422 Ry
     estimated scf accuracy    <       1.77509125 Ry

     iteration # 15     ecut=    40.42 Ry     beta= 0.70
     Davidson diagonalization with overlap
     ethr =  5.03E-04,  avg # of iterations =  1.0

     total cpu time spent up to now is       10.9 secs

     total energy              =   -5121.26374080 Ry
     estimated scf accuracy    <       0.96496889 Ry

     iteration # 16     ecut=    40.42 Ry     beta= 0.70
     Davidson diagonalization with overlap
     ethr =  2.73E-04,  avg # of iterations =  1.0

     total cpu time spent up to now is       11.4 secs

     total energy              =   -5121.26128760 Ry
     estimated scf accuracy    <       1.23556906 Ry

     iteration # 17     ecut=    40.42 Ry     beta= 0.70
     Davidson diagonalization with overlap
     ethr =  2.73E-04,  avg # of iterations =  2.0

     total cpu time spent up to now is       12.0 secs

     total energy              =   -5121.12137815 Ry
     estimated scf accuracy    <       3.80088944 Ry

     iteration # 18     ecut=    40.42 Ry     beta= 0.70
     Davidson diagonalization with overlap
     ethr =  2.73E-04,  avg # of iterations = 18.0

     total cpu time spent up to now is       13.1 secs

     total energy              =   -5120.36512275 Ry
     estimated scf accuracy    <      42.25501711 Ry

     iteration # 19     ecut=    40.42 Ry     beta= 0.70
     Davidson diagonalization with overlap
     ethr =  2.73E-04,  avg # of iterations =  8.0

     total cpu time spent up to now is       14.1 secs

     total energy              =   -5120.75969770 Ry
     estimated scf accuracy    <      21.07994470 Ry

     iteration # 20     ecut=    40.42 Ry     beta= 0.70
     Davidson diagonalization with overlap
     ethr =  2.73E-04,  avg # of iterations =  2.0

     total cpu time spent up to now is       14.6 secs

     total energy              =   -5121.21363613 Ry
     estimated scf accuracy    <       2.35400637 Ry

     iteration # 21     ecut=    40.42 Ry     beta= 0.70
     Davidson diagonalization with overlap
     ethr =  2.73E-04,  avg # of iterations =  1.0

     total cpu time spent up to now is       15.1 secs

     total energy              =   -5121.28170509 Ry
     estimated scf accuracy    <       0.22896371 Ry

     iteration # 22     ecut=    40.42 Ry     beta= 0.70
     Davidson diagonalization with overlap
     ethr =  6.49E-05,  avg # of iterations =  2.0

     total cpu time spent up to now is       15.7 secs

     total energy              =   -5121.27154013 Ry
     estimated scf accuracy    <       0.23293535 Ry

     iteration # 23     ecut=    40.42 Ry     beta= 0.70
     Davidson diagonalization with overlap
     ethr =  6.49E-05,  avg # of iterations = 11.0

     total cpu time spent up to now is       16.8 secs

     total energy              =   -5121.01705151 Ry
     estimated scf accuracy    <      12.98272951 Ry

     iteration # 24     ecut=    40.42 Ry     beta= 0.70
     Davidson diagonalization with overlap
     ethr =  6.49E-05,  avg # of iterations =  9.0

     total cpu time spent up to now is       17.6 secs

     total energy              =   -5121.25461465 Ry
     estimated scf accuracy    <       0.83123198 Ry

     iteration # 25     ecut=    40.42 Ry     beta= 0.70
     Davidson diagonalization with overlap
     ethr =  6.49E-05,  avg # of iterations =  8.0

     total cpu time spent up to now is       18.3 secs

     total energy              =   -5121.24420878 Ry
     estimated scf accuracy    <       1.30415144 Ry

     iteration # 26     ecut=    40.42 Ry     beta= 0.70
     Davidson diagonalization with overlap
     ethr =  6.49E-05,  avg # of iterations =  8.0

     total cpu time spent up to now is       19.1 secs

     total energy              =   -5121.20971517 Ry
     estimated scf accuracy    <       3.06702888 Ry

     iteration # 27     ecut=    40.42 Ry     beta= 0.70
     Davidson diagonalization with overlap
     ethr =  6.49E-05,  avg # of iterations =  7.0

     total cpu time spent up to now is       19.8 secs

     total energy              =   -5121.18153702 Ry
     estimated scf accuracy    <       4.51080168 Ry

     iteration # 28     ecut=    40.42 Ry     beta= 0.70
     Davidson diagonalization with overlap
     ethr =  6.49E-05,  avg # of iterations =  3.0

     total cpu time spent up to now is       20.4 secs

     total energy              =   -5121.20100150 Ry
     estimated scf accuracy    <       4.49792818 Ry

     iteration # 29     ecut=    40.42 Ry     beta= 0.70
     Davidson diagonalization with overlap
     ethr =  6.49E-05,  avg # of iterations =  2.0

     total cpu time spent up to now is       21.0 secs

     total energy              =   -5121.27079183 Ry
     estimated scf accuracy    <       0.80290780 Ry

     iteration # 30     ecut=    40.42 Ry     beta= 0.70
     Davidson diagonalization with overlap
     ethr =  6.49E-05,  avg # of iterations =  2.0

     total cpu time spent up to now is       21.5 secs

     total energy              =   -5121.25059951 Ry
     estimated scf accuracy    <       1.28879500 Ry

     iteration # 31     ecut=    40.42 Ry     beta= 0.70
     Davidson diagonalization with overlap
     ethr =  6.49E-05,  avg # of iterations =  3.0

     total cpu time spent up to now is       22.2 secs

     total energy              =   -5121.14236690 Ry
     estimated scf accuracy    <       3.49368403 Ry

     iteration # 32     ecut=    40.42 Ry     beta= 0.70
     Davidson diagonalization with overlap
     ethr =  6.49E-05,  avg # of iterations =  8.0

     total cpu time spent up to now is       23.3 secs

     total energy              =   -5121.01172349 Ry
     estimated scf accuracy    <       6.95326887 Ry

     iteration # 33     ecut=    40.42 Ry     beta= 0.70
     Davidson diagonalization with overlap
     ethr =  6.49E-05,  avg # of iterations =  4.0

     total cpu time spent up to now is       24.1 secs

     total energy              =   -5121.21113010 Ry
     estimated scf accuracy    <       2.26475587 Ry

     iteration # 34     ecut=    40.42 Ry     beta= 0.70
     Davidson diagonalization with overlap
     ethr =  6.49E-05,  avg # of iterations = 10.0

     total cpu time spent up to now is       25.0 secs

     total energy              =   -5121.10211466 Ry
     estimated scf accuracy    <       5.84037294 Ry

     iteration # 35     ecut=    40.42 Ry     beta= 0.70
     Davidson diagonalization with overlap
     ethr =  6.49E-05,  avg # of iterations =  8.0

     total cpu time spent up to now is       26.0 secs

     total energy              =   -5121.04315248 Ry
     estimated scf accuracy    <       8.50398203 Ry

     iteration # 36     ecut=    40.42 Ry     beta= 0.70
     Davidson diagonalization with overlap
     ethr =  6.49E-05,  avg # of iterations = 10.0

     total cpu time spent up to now is       27.3 secs

     total energy              =   -5120.91865132 Ry
     estimated scf accuracy    <      17.67164256 Ry

     iteration # 37     ecut=    40.42 Ry     beta= 0.70
     Davidson diagonalization with overlap
     ethr =  6.49E-05,  avg # of iterations = 10.0

     total cpu time spent up to now is       28.5 secs

     total energy              =   -5120.95988853 Ry
     estimated scf accuracy    <      14.05296517 Ry

     iteration # 38     ecut=    40.42 Ry     beta= 0.70
     Davidson diagonalization with overlap
     ethr =  6.49E-05,  avg # of iterations =  8.0

     total cpu time spent up to now is       29.5 secs

     total energy              =   -5120.90505103 Ry
     estimated scf accuracy    <      13.44914215 Ry

     iteration # 39     ecut=    40.42 Ry     beta= 0.70
     Davidson diagonalization with overlap
     ethr =  6.49E-05,  avg # of iterations = 11.0

     total cpu time spent up to now is       30.7 secs

     total energy              =   -5120.08687574 Ry
     estimated scf accuracy    <      37.03534051 Ry

     iteration # 40     ecut=    40.42 Ry     beta= 0.70
     Davidson diagonalization with overlap
     ethr =  6.49E-05,  avg # of iterations =  9.0

     total cpu time spent up to now is       32.1 secs

     total energy              =   -5120.03050876 Ry
     estimated scf accuracy    <      38.85558148 Ry

     iteration # 41     ecut=    40.42 Ry     beta= 0.70
     Davidson diagonalization with overlap
     ethr =  6.49E-05,  avg # of iterations = 11.0

     total cpu time spent up to now is       33.4 secs

     total energy              =   -5120.70856210 Ry
     estimated scf accuracy    <      14.77749382 Ry

     iteration # 42     ecut=    40.42 Ry     beta= 0.70
     Davidson diagonalization with overlap
     ethr =  6.49E-05,  avg # of iterations = 11.0

     total cpu time spent up to now is       35.1 secs

     total energy              =   -5120.63275037 Ry
     estimated scf accuracy    <       6.40536629 Ry

     iteration # 43     ecut=    40.42 Ry     beta= 0.70
     Davidson diagonalization with overlap
     ethr =  6.49E-05,  avg # of iterations = 13.0

     total cpu time spent up to now is       36.6 secs

     total energy              =   -5117.36219780 Ry
     estimated scf accuracy    <     137.74023557 Ry

     iteration # 44     ecut=    40.42 Ry     beta= 0.70
     Davidson diagonalization with overlap
     ethr =  6.49E-05,  avg # of iterations = 19.0

     total cpu time spent up to now is       39.0 secs

     total energy              =   -5120.00426462 Ry
     estimated scf accuracy    <      31.98604749 Ry

     iteration # 45     ecut=    40.42 Ry     beta= 0.70
     Davidson diagonalization with overlap
     ethr =  6.49E-05,  avg # of iterations = 16.0

     total cpu time spent up to now is       40.7 secs

     total energy              =   -5117.94595001 Ry
     estimated scf accuracy    <     136.81738841 Ry

     iteration # 46     ecut=    40.42 Ry     beta= 0.70
     Davidson diagonalization with overlap
     ethr =  6.49E-05,  avg # of iterations = 16.0

     total cpu time spent up to now is       42.3 secs

     total energy              =   -5118.16853926 Ry
     estimated scf accuracy    <     113.62926129 Ry

     iteration # 47     ecut=    40.42 Ry     beta= 0.70
     Davidson diagonalization with overlap
     ethr =  6.49E-05,  avg # of iterations = 13.0

     total cpu time spent up to now is       44.0 secs

     total energy              =   -5118.43954680 Ry
     estimated scf accuracy    <      57.61362780 Ry

     iteration # 48     ecut=    40.42 Ry     beta= 0.70
     Davidson diagonalization with overlap
     ethr =  6.49E-05,  avg # of iterations = 11.0

     total cpu time spent up to now is       45.9 secs

     total energy              =   -5114.68965130 Ry
     estimated scf accuracy    <     235.70933552 Ry

     iteration # 49     ecut=    40.42 Ry     beta= 0.70
     Davidson diagonalization with overlap
     ethr =  6.49E-05,  avg # of iterations = 12.0

     total cpu time spent up to now is       48.0 secs

     total energy              =   -5118.57510633 Ry
     estimated scf accuracy    <      85.39650343 Ry

     iteration # 50     ecut=    40.42 Ry     beta= 0.70
     Davidson diagonalization with overlap
     ethr =  6.49E-05,  avg # of iterations = 12.0

     total cpu time spent up to now is       49.5 secs

     total energy              =   -5119.96117678 Ry
     estimated scf accuracy    <      20.15000189 Ry

     iteration # 51     ecut=    40.42 Ry     beta= 0.70
     Davidson diagonalization with overlap
     ethr =  6.49E-05,  avg # of iterations = 10.0

     total cpu time spent up to now is       51.0 secs

     total energy              =   -5112.93500376 Ry
     estimated scf accuracy    <     216.84014017 Ry

     iteration # 52     ecut=    40.42 Ry     beta= 0.70
     Davidson diagonalization with overlap
     ethr =  6.49E-05,  avg # of iterations = 12.0

     total cpu time spent up to now is       53.0 secs

     total energy              =   -5112.07717311 Ry
     estimated scf accuracy    <     229.10949252 Ry

     iteration # 53     ecut=    40.42 Ry     beta= 0.70
     Davidson diagonalization with overlap
     ethr =  6.49E-05,  avg # of iterations = 16.0

     total cpu time spent up to now is       55.1 secs

     total energy              =   -5113.91614546 Ry
     estimated scf accuracy    <     245.72637985 Ry

     iteration # 54     ecut=    40.42 Ry     beta= 0.70
     Davidson diagonalization with overlap
     ethr =  6.49E-05,  avg # of iterations = 10.0

     total cpu time spent up to now is       57.0 secs

     total energy              =   -5115.50127086 Ry
     estimated scf accuracy    <     130.43006616 Ry

     iteration # 55     ecut=    40.42 Ry     beta= 0.70
     Davidson diagonalization with overlap
     ethr =  6.49E-05,  avg # of iterations = 11.0

     total cpu time spent up to now is       58.8 secs

     total energy              =   -5112.63911404 Ry
     estimated scf accuracy    <     273.42632322 Ry

     iteration # 56     ecut=    40.42 Ry     beta= 0.70
     Davidson diagonalization with overlap
     ethr =  6.49E-05,  avg # of iterations = 14.0

     total cpu time spent up to now is       61.1 secs

     total energy              =   -5109.00841390 Ry
     estimated scf accuracy    <     464.33539872 Ry

     iteration # 57     ecut=    40.42 Ry     beta= 0.70
     Davidson diagonalization with overlap
     ethr =  6.49E-05,  avg # of iterations = 14.0

     total cpu time spent up to now is       63.4 secs

     total energy              =   -5115.01234110 Ry
     estimated scf accuracy    <     195.79614468 Ry

     iteration # 58     ecut=    40.42 Ry     beta= 0.70
     Davidson diagonalization with overlap
     ethr =  6.49E-05,  avg # of iterations = 11.0

     total cpu time spent up to now is       65.5 secs

     total energy              =   -5118.59651897 Ry
     estimated scf accuracy    <      54.77478309 Ry

     iteration # 59     ecut=    40.42 Ry     beta= 0.70
     Davidson diagonalization with overlap
     ethr =  6.49E-05,  avg # of iterations = 13.0

     total cpu time spent up to now is       67.4 secs

     total energy              =   -5106.40861939 Ry
     estimated scf accuracy    <     266.93409041 Ry

     iteration # 60     ecut=    40.42 Ry     beta= 0.70
     Davidson diagonalization with overlap
     ethr =  6.49E-05,  avg # of iterations = 13.0

     total cpu time spent up to now is       69.8 secs

     total energy              =   -5102.16866111 Ry
     estimated scf accuracy    <     496.57330915 Ry

     iteration # 61     ecut=    40.42 Ry     beta= 0.70
     Davidson diagonalization with overlap
     ethr =  6.49E-05,  avg # of iterations = 19.0

     total cpu time spent up to now is       72.4 secs

     total energy              =   -5113.74454548 Ry
     estimated scf accuracy    <     201.04480321 Ry

     iteration # 62     ecut=    40.42 Ry     beta= 0.70
     Davidson diagonalization with overlap
     ethr =  6.49E-05,  avg # of iterations = 12.0

     total cpu time spent up to now is       74.2 secs

     total energy              =   -5115.13840974 Ry
     estimated scf accuracy    <      68.73570368 Ry

     iteration # 63     ecut=    40.42 Ry     beta= 0.70
     Davidson diagonalization with overlap
     ethr =  6.49E-05,  avg # of iterations = 14.0

     total cpu time spent up to now is       76.2 secs

     total energy              =   -5097.62544869 Ry
     estimated scf accuracy    <     789.23377405 Ry

     iteration # 64     ecut=    40.42 Ry     beta= 0.70
     Davidson diagonalization with overlap
     ethr =  6.49E-05,  avg # of iterations = 15.0

     total cpu time spent up to now is       78.4 secs

     total energy              =   -5109.60342080 Ry
     estimated scf accuracy    <     244.57863262 Ry

     iteration # 65     ecut=    40.42 Ry     beta= 0.70
     Davidson diagonalization with overlap
     ethr =  6.49E-05,  avg # of iterations = 18.0

     total cpu time spent up to now is       81.0 secs

     total energy              =   -5109.13373247 Ry
     estimated scf accuracy    <     427.60064665 Ry

     iteration # 66     ecut=    40.42 Ry     beta= 0.70
     Davidson diagonalization with overlap
     ethr =  6.49E-05,  avg # of iterations = 17.0

     total cpu time spent up to now is       83.9 secs

     total energy              =   -5116.71965149 Ry
     estimated scf accuracy    <     155.80496664 Ry

     iteration # 67     ecut=    40.42 Ry     beta= 0.70
     Davidson diagonalization with overlap
     ethr =  6.49E-05,  avg # of iterations = 19.0

     total cpu time spent up to now is       86.1 secs

     total energy              =   -5101.81293521 Ry
     estimated scf accuracy    <     259.34900341 Ry

     iteration # 68     ecut=    40.42 Ry     beta= 0.70
     Davidson diagonalization with overlap
     ethr =  6.49E-05,  avg # of iterations = 12.0

     total cpu time spent up to now is       88.3 secs

     total energy              =   -5078.02592360 Ry
     estimated scf accuracy    <    1046.86628668 Ry

     iteration # 69     ecut=    40.42 Ry     beta= 0.70
     Davidson diagonalization with overlap
     ethr =  6.49E-05,  avg # of iterations = 14.0

     total cpu time spent up to now is       90.9 secs

     total energy              =   -5109.73396065 Ry
     estimated scf accuracy    <     289.76187393 Ry

     iteration # 70     ecut=    40.42 Ry     beta= 0.70
     Davidson diagonalization with overlap
     ethr =  6.49E-05,  avg # of iterations = 13.0

     total cpu time spent up to now is       93.2 secs

     total energy              =   -5118.19408548 Ry
     estimated scf accuracy    <     111.68368343 Ry

     iteration # 71     ecut=    40.42 Ry     beta= 0.70
     Davidson diagonalization with overlap
     ethr =  6.49E-05,  avg # of iterations = 17.0

     total cpu time spent up to now is       95.2 secs

     total energy              =   -5106.13457903 Ry
     estimated scf accuracy    <     216.67115406 Ry

     iteration # 72     ecut=    40.42 Ry     beta= 0.70
     Davidson diagonalization with overlap
     ethr =  6.49E-05,  avg # of iterations = 16.0

     total cpu time spent up to now is       97.5 secs

     total energy              =   -5099.13818964 Ry
     estimated scf accuracy    <     678.09144820 Ry

     iteration # 73     ecut=    40.42 Ry     beta= 0.70
     Davidson diagonalization with overlap
     ethr =  6.49E-05,  avg # of iterations = 15.0

     total cpu time spent up to now is      100.2 secs

     total energy              =   -5109.60014530 Ry
     estimated scf accuracy    <     305.66301526 Ry

     iteration # 74     ecut=    40.42 Ry     beta= 0.70
     Davidson diagonalization with overlap
     ethr =  6.49E-05,  avg # of iterations = 11.0

     total cpu time spent up to now is      102.2 secs

     total energy              =   -5111.02181848 Ry
     estimated scf accuracy    <     249.84248156 Ry

     iteration # 75     ecut=    40.42 Ry     beta= 0.70
     Davidson diagonalization with overlap
     ethr =  6.49E-05,  avg # of iterations = 15.0

     total cpu time spent up to now is      104.9 secs

     total energy              =   -5096.36693244 Ry
     estimated scf accuracy    <     575.16513963 Ry

     iteration # 76     ecut=    40.42 Ry     beta= 0.70
     Davidson diagonalization with overlap
     ethr =  6.49E-05,  avg # of iterations = 11.0

     total cpu time spent up to now is      107.0 secs

     total energy              =   -5094.34192547 Ry
     estimated scf accuracy    <     541.05050498 Ry

     iteration # 77     ecut=    40.42 Ry     beta= 0.70
     Davidson diagonalization with overlap
     ethr =  6.49E-05,  avg # of iterations = 20.0

     total cpu time spent up to now is      109.6 secs

     total energy              =   -5090.56738906 Ry
     estimated scf accuracy    <     830.96731913 Ry

     iteration # 78     ecut=    40.42 Ry     beta= 0.70
     Davidson diagonalization with overlap
     ethr =  6.49E-05,  avg # of iterations = 15.0

     total cpu time spent up to now is      112.2 secs

     total energy              =   -5116.26192609 Ry
     estimated scf accuracy    <     119.69376606 Ry

     iteration # 79     ecut=    40.42 Ry     beta= 0.70
     Davidson diagonalization with overlap
     c_bands:  1 eigenvalues not converged
     ethr =  6.49E-05,  avg # of iterations = 20.0

     total cpu time spent up to now is      114.7 secs

     total energy              =   -5105.90162062 Ry
     estimated scf accuracy    <     270.58971329 Ry

     iteration # 80     ecut=    40.42 Ry     beta= 0.70
     Davidson diagonalization with overlap
     ethr =  6.49E-05,  avg # of iterations = 14.0

     total cpu time spent up to now is      116.9 secs

     total energy              =   -5103.39307138 Ry
     estimated scf accuracy    <     304.16273181 Ry

     iteration # 81     ecut=    40.42 Ry     beta= 0.70
     Davidson diagonalization with overlap
     ethr =  6.49E-05,  avg # of iterations = 12.0

     total cpu time spent up to now is      119.1 secs

     total energy              =   -5094.60878800 Ry
     estimated scf accuracy    <     625.94428316 Ry

     iteration # 82     ecut=    40.42 Ry     beta= 0.70
     Davidson diagonalization with overlap
     ethr =  6.49E-05,  avg # of iterations = 16.0

     total cpu time spent up to now is      121.9 secs

     total energy              =   -5110.00895834 Ry
     estimated scf accuracy    <     336.41058941 Ry

     iteration # 83     ecut=    40.42 Ry     beta= 0.70
     Davidson diagonalization with overlap
     ethr =  6.49E-05,  avg # of iterations = 14.0

     total cpu time spent up to now is      124.2 secs

     total energy              =   -5098.40389972 Ry
     estimated scf accuracy    <     518.48011664 Ry

     iteration # 84     ecut=    40.42 Ry     beta= 0.70
     Davidson diagonalization with overlap
     ethr =  6.49E-05,  avg # of iterations = 13.0

     total cpu time spent up to now is      126.6 secs

     total energy              =   -5103.07078782 Ry
     estimated scf accuracy    <     303.50983936 Ry

     iteration # 85     ecut=    40.42 Ry     beta= 0.70
     Davidson diagonalization with overlap
     ethr =  6.49E-05,  avg # of iterations = 15.0

     total cpu time spent up to now is      129.3 secs

     total energy              =   -5088.52749379 Ry
     estimated scf accuracy    <    1031.97022724 Ry

     iteration # 86     ecut=    40.42 Ry     beta= 0.70
     Davidson diagonalization with overlap
     c_bands:  1 eigenvalues not converged
     ethr =  6.49E-05,  avg # of iterations = 20.0

     total cpu time spent up to now is      132.6 secs

     total energy              =   -5107.23852776 Ry
     estimated scf accuracy    <     455.66910052 Ry

     iteration # 87     ecut=    40.42 Ry     beta= 0.70
     Davidson diagonalization with overlap
     ethr =  6.49E-05,  avg # of iterations = 13.0

     total cpu time spent up to now is      134.9 secs

     total energy              =   -5108.16744237 Ry
     estimated scf accuracy    <     295.17363831 Ry

     iteration # 88     ecut=    40.42 Ry     beta= 0.70
     Davidson diagonalization with overlap
     ethr =  6.49E-05,  avg # of iterations = 12.0

     total cpu time spent up to now is      137.1 secs

     total energy              =   -5105.48425770 Ry
     estimated scf accuracy    <     297.75645239 Ry

     iteration # 89     ecut=    40.42 Ry     beta= 0.70
     Davidson diagonalization with overlap
     ethr =  6.49E-05,  avg # of iterations = 12.0

     total cpu time spent up to now is      139.5 secs

     total energy              =   -5096.49626453 Ry
     estimated scf accuracy    <     511.04972673 Ry

     iteration # 90     ecut=    40.42 Ry     beta= 0.70
     Davidson diagonalization with overlap
     ethr =  6.49E-05,  avg # of iterations = 14.0

     total cpu time spent up to now is      142.0 secs

     total energy              =   -5105.65774452 Ry
     estimated scf accuracy    <     354.10907463 Ry

     iteration # 91     ecut=    40.42 Ry     beta= 0.70
     Davidson diagonalization with overlap
     ethr =  6.49E-05,  avg # of iterations = 13.0

     total cpu time spent up to now is      144.4 secs

     total energy              =   -5097.75738726 Ry
     estimated scf accuracy    <     461.23298364 Ry

     iteration # 92     ecut=    40.42 Ry     beta= 0.70
     Davidson diagonalization with overlap
     ethr =  6.49E-05,  avg # of iterations = 13.0

     total cpu time spent up to now is      146.9 secs

     total energy              =   -5095.43018703 Ry
     estimated scf accuracy    <     727.30389483 Ry

     iteration # 93     ecut=    40.42 Ry     beta= 0.70
     Davidson diagonalization with overlap
     ethr =  6.49E-05,  avg # of iterations = 16.0

     total cpu time spent up to now is      149.7 secs

     total energy              =   -5094.32337423 Ry
     estimated scf accuracy    <     612.37538305 Ry

     iteration # 94     ecut=    40.42 Ry     beta= 0.70
     Davidson diagonalization with overlap
     ethr =  6.49E-05,  avg # of iterations = 15.0

     total cpu time spent up to now is      152.5 secs

     total energy              =   -5104.33539346 Ry
     estimated scf accuracy    <     379.24179675 Ry

     iteration # 95     ecut=    40.42 Ry     beta= 0.70
     Davidson diagonalization with overlap
     ethr =  6.49E-05,  avg # of iterations = 15.0

     total cpu time spent up to now is      155.1 secs

     total energy              =   -5094.87613153 Ry
     estimated scf accuracy    <     800.06283404 Ry

     iteration # 96     ecut=    40.42 Ry     beta= 0.70
     Davidson diagonalization with overlap
     ethr =  6.49E-05,  avg # of iterations = 14.0

     total cpu time spent up to now is      157.8 secs

     total energy              =   -5098.18220985 Ry
     estimated scf accuracy    <     534.85679452 Ry

     iteration # 97     ecut=    40.42 Ry     beta= 0.70
     Davidson diagonalization with overlap
     c_bands:  1 eigenvalues not converged
     ethr =  6.49E-05,  avg # of iterations = 20.0

     total cpu time spent up to now is      160.5 secs

     total energy              =   -5090.56630223 Ry
     estimated scf accuracy    <     664.33791782 Ry

     iteration # 98     ecut=    40.42 Ry     beta= 0.70
     Davidson diagonalization with overlap
     ethr =  6.49E-05,  avg # of iterations = 16.0

     total cpu time spent up to now is      163.2 secs

     total energy              =   -5103.17960168 Ry
     estimated scf accuracy    <     410.94779090 Ry

     iteration # 99     ecut=    40.42 Ry     beta= 0.70
     Davidson diagonalization with overlap
     ethr =  6.49E-05,  avg # of iterations = 12.0

     total cpu time spent up to now is      165.6 secs

     total energy              =   -5097.52241327 Ry
     estimated scf accuracy    <     472.86515435 Ry

     iteration #100     ecut=    40.42 Ry     beta= 0.70
     Davidson diagonalization with overlap
     ethr =  6.49E-05,  avg # of iterations = 16.0

     total cpu time spent up to now is      168.2 secs

     total energy              =   -5099.56363012 Ry
     estimated scf accuracy    <     423.62987633 Ry

     End of self-consistent calculation

     convergence NOT achieved after 100 iterations: stopping

     Writing config to output data dir ./tutorial.save/
     Message from routine punch:
     wavefunctions written to file
 
     init_run     :      0.47s CPU      0.52s WALL (       1 calls)
     electrons    :    163.03s CPU    167.40s WALL (       1 calls)

     Called by init_run:
     wfcinit      :      0.17s CPU      0.17s WALL (       1 calls)
     potinit      :      0.09s CPU      0.10s WALL (       1 calls)
     hinit0       :      0.14s CPU      0.15s WALL (       1 calls)

     Called by electrons:
     c_bands      :    152.47s CPU    156.62s WALL (     100 calls)
     sum_band     :      7.47s CPU      7.59s WALL (     100 calls)
     v_of_rho     :      0.41s CPU      0.42s WALL (     101 calls)
     newd         :      2.54s CPU      2.57s WALL (     101 calls)
     mix_rho      :      0.15s CPU      0.15s WALL (     100 calls)

     Called by c_bands:
     init_us_2    :      0.30s CPU      0.30s WALL (     201 calls)
     init_us_2:cp :      0.29s CPU      0.30s WALL (     201 calls)
     cegterg      :    151.14s CPU    155.26s WALL (     100 calls)

     Called by *egterg:
     cdiaghg      :     66.76s CPU     69.14s WALL (    1163 calls)
     h_psi        :     42.79s CPU     43.62s WALL (    1164 calls)
     s_psi        :      6.53s CPU      6.54s WALL (    1164 calls)
     g_psi        :      0.31s CPU      0.31s WALL (    1063 calls)

     Called by h_psi:
     h_psi:calbec :      6.56s CPU      6.59s WALL (    1164 calls)
     vloc_psi     :     29.16s CPU     29.93s WALL (    1164 calls)
     add_vuspsi   :      6.69s CPU      6.72s WALL (    1164 calls)

     General routines
     calbec       :      7.72s CPU      7.77s WALL (    1264 calls)
     fft          :      0.24s CPU      0.25s WALL (    1112 calls)
     ffts         :      0.03s CPU      0.03s WALL (     100 calls)
     fftw         :     29.34s CPU     30.08s WALL (  244514 calls)
     davcio       :      0.00s CPU      0.00s WALL (      19 calls)
 
     Parallel routines
 
     PWSCF        :   2m43.77s CPU   2m48.26s WALL

 
   This run was terminated on:  14:59:25  30May2023            

=------------------------------------------------------------------------------=
   JOB DONE.
=------------------------------------------------------------------------------=
