
     Program PWSCF v.7.2 starts on 30May2023 at 14: 7: 0 

     This program is part of the open-source Quantum ESPRESSO suite
     for quantum simulation of materials; please cite
         "P. Giannozzi et al., J. Phys.:Condens. Matter 21 395502 (2009);
         "P. Giannozzi et al., J. Phys.:Condens. Matter 29 465901 (2017);
         "P. Giannozzi et al., J. Chem. Phys. 152 154105 (2020);
          URL http://www.quantum-espresso.org", 
     in publications or presentations arising from this work. More details at
     http://www.quantum-espresso.org/quote

     Parallel version (MPI), running on    28 processors

     MPI processes distributed on     1 nodes
     86426 MiB available memory on the printing compute node when the environment starts
 
     Waiting for input...
     Reading input from standard input
Warning: card &CELL ignored
Warning: card / ignored

     Current dimensions of program PWSCF are:
     Max number of different atomic species (ntypx) = 10
     Max number of k-points (npk) =  40000
     Max angular momentum in pseudopotentials (lmaxx) =  4
     file Mn.pbesol-spn-rrkjus_psl.0.3.1.UPF: wavefunction(s)  3D renormalized
     Message from routine setup:
     using ibrav=0 with symmetry is DISCOURAGED, use correct ibrav instead
 
     R & G space division:  proc/nbgrp/npool/nimage =      28
     Subspace diagonalization in iterative solution of the eigenvalue problem:
     a serial algorithm will be used

 
     Parallelization info
     --------------------
     sticks:   dense  smooth     PW     G-vecs:    dense   smooth      PW
     Min          35      35      8                  969      969     117
     Max          36      36      9                  974      974     123
     Sum         985     985    241                27171    27171    3373
 
     Using Slab Decomposition
 


     bravais-lattice index     =            0
     lattice parameter (alat)  =      11.7626  a.u.
     unit-cell volume          =     783.8099 (a.u.)^3
     number of atoms/cell      =            8
     number of atomic types    =            3
     number of electrons       =        83.00
     number of Kohn-Sham states=           50
     kinetic-energy cutoff     =      40.4242  Ry
     charge density cutoff     =     161.6969  Ry
     scf convergence threshold =      1.0E-06
     mixing beta               =       0.7000
     number of iterations used =            8  plain     mixing
     energy convergence thresh.=      1.0E-04
     force convergence thresh. =      1.0E-03
     Exchange-correlation= PBESOL
                           (   1   4  10   8   0   0   0)
     nstep                     =           50


     celldm(1)=  11.762627  celldm(2)=   0.000000  celldm(3)=   0.000000
     celldm(4)=   0.000000  celldm(5)=   0.000000  celldm(6)=   0.000000

     crystal axes: (cart. coord. in units of alat)
               a(1) = (   0.585717   0.000000   0.810516 )  
               a(2) = (  -0.292859   0.507246   0.000000 )  
               a(3) = (   0.000000   0.000000   1.621031 )  

     reciprocal axes: (cart. coord. in units 2 pi/alat)
               b(1) = (  1.707309  0.985715  0.000000 )  
               b(2) = (  0.000000  1.971431  0.000000 )  
               b(3) = ( -0.853655 -0.492858  0.616891 )  


     PseudoPot. # 1 for Ni read from file:
     /home/valmzztt/Intermetallic_alloys/pseudos/Ni.pbesol-spn-rrkjus_psl.1.0.0.UPF
     MD5 check sum: 6fc0a587bf949a08f2faed986b854013
     Pseudo is Ultrasoft + core correction, Zval = 18.0
     Generated using &quot;atomic&quot; code by A. Dal Corso  v.6.3
     Using radial grid of 1195 points,  6 beta functions with: 
                l(1) =   0
                l(2) =   0
                l(3) =   1
                l(4) =   1
                l(5) =   2
                l(6) =   2
     Q(r) pseudized with 0 coefficients 


     PseudoPot. # 2 for Mn read from file:
     /home/valmzztt/Intermetallic_alloys/pseudos/Mn.pbesol-spn-rrkjus_psl.0.3.1.UPF
     MD5 check sum: 61e28eea34dae291f95a967fe31318f1
     Pseudo is Ultrasoft + core correction, Zval = 15.0
     Generated using &quot;atomic&quot; code by A. Dal Corso  v.6.3
     Using radial grid of 1187 points,  6 beta functions with: 
                l(1) =   0
                l(2) =   0
                l(3) =   1
                l(4) =   1
                l(5) =   2
                l(6) =   2
     Q(r) pseudized with 0 coefficients 


     PseudoPot. # 3 for As read from file:
     /home/valmzztt/Intermetallic_alloys/pseudos/As.pbesol-n-rrkjus_psl.1.0.0.UPF
     MD5 check sum: 2fb13bbab3d0b4e108be5408f3d6fe7c
     Pseudo is Ultrasoft + core correction, Zval =  5.0
     Generated using &quot;atomic&quot; code by A. Dal Corso  v.6.3
     Using radial grid of 1209 points,  4 beta functions with: 
                l(1) =   0
                l(2) =   0
                l(3) =   1
                l(4) =   1
     Q(r) pseudized with 0 coefficients 


     atomic species   valence    mass     pseudopotential
        Ni            18.00    58.69340     Ni( 1.00)
        Mn            15.00    54.93804     Mn( 1.00)
        As             5.00    74.92159     As( 1.00)

      4 Sym. Ops., with inversion, found



   Cartesian axes

     site n.     atom                  positions (alat units)
         1           Ni  tau(   1) = (   0.0000000   0.0000000   0.0000000  )
         2           Mn  tau(   2) = (   0.0000000   0.0000000   0.4052578  )
         3           Mn  tau(   3) = (   0.0000000   0.0000000   0.8105156  )
         4           Mn  tau(   4) = (   0.0000000   0.0000000   1.2157734  )
         5           As  tau(   5) = (  -0.0000000   0.3381639   1.0131445  )
         6           As  tau(   6) = (  -0.0000000   0.3381639   1.8236601  )
         7           As  tau(   7) = (   0.2928585   0.1690819   0.6078867  )
         8           As  tau(   8) = (   0.2928585   0.1690819   1.4184023  )

     number of k points=     1  Gaussian smearing, width (Ry)=  0.0147
                       cart. coord. in units 2pi/alat
        k(    1) = (   0.0000000   0.0000000   0.0000000), wk =   2.0000000

     Dense  grid:    27171 G-vectors     FFT dimensions: (  48,  27,  80)

     Estimated max dynamical RAM per process >       7.01 MB

     Estimated total dynamical RAM >     196.15 MB

     Check: negative core charge=   -0.000080

     Initial potential from superposition of free atoms

     starting charge      82.9975, renormalised to      83.0000
     Starting wfcs are   56 randomized atomic wfcs

     total cpu time spent up to now is        0.4 secs

     Self-consistent Calculation

     iteration #  1     ecut=    40.42 Ry     beta= 0.70
     Davidson diagonalization with overlap
     ethr =  1.00E-02,  avg # of iterations =  2.0

     total cpu time spent up to now is        0.5 secs

     total energy              =   -1057.23000446 Ry
     estimated scf accuracy    <       5.08999653 Ry

     iteration #  2     ecut=    40.42 Ry     beta= 0.70
     Davidson diagonalization with overlap
     ethr =  6.13E-03,  avg # of iterations =  8.0

     total cpu time spent up to now is        0.6 secs

     total energy              =   -1056.77578519 Ry
     estimated scf accuracy    <      67.74092419 Ry

     iteration #  3     ecut=    40.42 Ry     beta= 0.70
     Davidson diagonalization with overlap
     ethr =  6.13E-03,  avg # of iterations =  6.0

     total cpu time spent up to now is        0.6 secs

     total energy              =   -1059.33488303 Ry
     estimated scf accuracy    <      32.31889389 Ry

     iteration #  4     ecut=    40.42 Ry     beta= 0.70
     Davidson diagonalization with overlap
     ethr =  6.13E-03,  avg # of iterations =  5.0

     total cpu time spent up to now is        0.7 secs

     total energy              =   -1060.98232192 Ry
     estimated scf accuracy    <       4.89528014 Ry

     iteration #  5     ecut=    40.42 Ry     beta= 0.70
     Davidson diagonalization with overlap
     ethr =  5.90E-03,  avg # of iterations =  1.0

     total cpu time spent up to now is        0.7 secs

     total energy              =   -1061.09150681 Ry
     estimated scf accuracy    <       3.72248340 Ry

     iteration #  6     ecut=    40.42 Ry     beta= 0.70
     Davidson diagonalization with overlap
     ethr =  4.48E-03,  avg # of iterations =  1.0

     total cpu time spent up to now is        0.8 secs

     total energy              =   -1060.97139248 Ry
     estimated scf accuracy    <       3.02840639 Ry

     iteration #  7     ecut=    40.42 Ry     beta= 0.70
     Davidson diagonalization with overlap
     ethr =  3.65E-03,  avg # of iterations =  1.0

     total cpu time spent up to now is        0.8 secs

     total energy              =   -1060.81814059 Ry
     estimated scf accuracy    <       1.88970697 Ry

     iteration #  8     ecut=    40.42 Ry     beta= 0.70
     Davidson diagonalization with overlap
     ethr =  2.28E-03,  avg # of iterations =  1.0

     total cpu time spent up to now is        0.9 secs

     total energy              =   -1060.89444962 Ry
     estimated scf accuracy    <       0.08295935 Ry

     iteration #  9     ecut=    40.42 Ry     beta= 0.70
     Davidson diagonalization with overlap
     ethr =  1.00E-04,  avg # of iterations = 14.0

     total cpu time spent up to now is        1.0 secs

     total energy              =   -1061.03887649 Ry
     estimated scf accuracy    <       1.32656021 Ry

     iteration # 10     ecut=    40.42 Ry     beta= 0.70
     Davidson diagonalization with overlap
     ethr =  1.00E-04,  avg # of iterations =  1.0

     total cpu time spent up to now is        1.0 secs

     total energy              =   -1060.97888676 Ry
     estimated scf accuracy    <       1.29771473 Ry

     iteration # 11     ecut=    40.42 Ry     beta= 0.70
     Davidson diagonalization with overlap
     ethr =  1.00E-04,  avg # of iterations =  1.0

     total cpu time spent up to now is        1.0 secs

     total energy              =   -1060.96952202 Ry
     estimated scf accuracy    <       0.54704846 Ry

     iteration # 12     ecut=    40.42 Ry     beta= 0.70
     Davidson diagonalization with overlap
     ethr =  1.00E-04,  avg # of iterations =  2.0

     total cpu time spent up to now is        1.1 secs

     total energy              =   -1060.95607501 Ry
     estimated scf accuracy    <       0.19938570 Ry

     iteration # 13     ecut=    40.42 Ry     beta= 0.70
     Davidson diagonalization with overlap
     ethr =  1.00E-04,  avg # of iterations =  2.0

     total cpu time spent up to now is        1.1 secs

     total energy              =   -1060.96235198 Ry
     estimated scf accuracy    <       0.06808765 Ry

     iteration # 14     ecut=    40.42 Ry     beta= 0.70
     Davidson diagonalization with overlap
     ethr =  8.20E-05,  avg # of iterations =  1.0

     total cpu time spent up to now is        1.2 secs

     total energy              =   -1060.96694156 Ry
     estimated scf accuracy    <       0.06021691 Ry

     iteration # 15     ecut=    40.42 Ry     beta= 0.70
     Davidson diagonalization with overlap
     ethr =  7.26E-05,  avg # of iterations =  1.0

     total cpu time spent up to now is        1.2 secs

     total energy              =   -1060.96681134 Ry
     estimated scf accuracy    <       0.02186260 Ry

     iteration # 16     ecut=    40.42 Ry     beta= 0.70
     Davidson diagonalization with overlap
     ethr =  2.63E-05,  avg # of iterations =  1.0

     total cpu time spent up to now is        1.3 secs

     total energy              =   -1060.96704946 Ry
     estimated scf accuracy    <       0.00226125 Ry

     iteration # 17     ecut=    40.42 Ry     beta= 0.70
     Davidson diagonalization with overlap
     ethr =  2.72E-06,  avg # of iterations = 10.0

     total cpu time spent up to now is        1.3 secs

     total energy              =   -1060.96705102 Ry
     estimated scf accuracy    <       0.00065815 Ry

     iteration # 18     ecut=    40.42 Ry     beta= 0.70
     Davidson diagonalization with overlap
     ethr =  7.93E-07,  avg # of iterations =  4.0

     total cpu time spent up to now is        1.4 secs

     total energy              =   -1060.96711370 Ry
     estimated scf accuracy    <       0.00046207 Ry

     iteration # 19     ecut=    40.42 Ry     beta= 0.70
     Davidson diagonalization with overlap
     ethr =  5.57E-07,  avg # of iterations =  1.0

     total cpu time spent up to now is        1.4 secs

     total energy              =   -1060.96713717 Ry
     estimated scf accuracy    <       0.00001655 Ry

     iteration # 20     ecut=    40.42 Ry     beta= 0.70
     Davidson diagonalization with overlap
     ethr =  1.99E-08,  avg # of iterations =  5.0

     total cpu time spent up to now is        1.5 secs

     total energy              =   -1060.96714344 Ry
     estimated scf accuracy    <       0.00001104 Ry

     iteration # 21     ecut=    40.42 Ry     beta= 0.70
     Davidson diagonalization with overlap
     ethr =  1.33E-08,  avg # of iterations =  1.0

     total cpu time spent up to now is        1.5 secs

     End of self-consistent calculation

          k = 0.0000 0.0000 0.0000 (  3373 PWs)   bands (ev):

   -90.1912 -64.9219 -64.7086 -64.7079 -50.2435 -50.2238 -50.0038 -34.2738
   -33.8197 -33.8177 -33.7838 -33.6146 -33.6104 -33.5324 -33.5255 -33.4811
    -1.0281   1.7124   1.7799   2.6826   6.3808   6.6571   6.6612   9.1640
     9.1871   9.8263  10.0518  10.2491  10.6957  10.7582  11.0482  11.0910
    11.9014  11.9774  12.2576  12.6958  12.7822  13.0039  13.5177  13.5726
    13.5857  13.6379  13.6822  13.8523  14.6154  15.0885  15.3241  15.6510
    15.6587  16.5954

     the Fermi energy is    13.6706 ev

!    total energy              =   -1060.96714356 Ry
     estimated scf accuracy    <       0.00000067 Ry
     smearing contrib. (-TS)   =      -0.03804432 Ry
     internal energy E=F+TS    =   -1060.92909924 Ry

     The total energy is F=E-TS. E is the sum of the following terms:
     one-electron contribution =    -673.07231902 Ry
     hartree contribution      =     378.08513033 Ry
     xc contribution           =    -163.12406857 Ry
     ewald contribution        =    -602.81784198 Ry

     convergence has been achieved in  21 iterations

     Forces acting on atoms (cartesian axes, Ry/au):

     atom    1 type  1   force =     0.00000000    0.00000000    0.00000000
     atom    2 type  2   force =     0.01220600    0.00704714    0.06000890
     atom    3 type  2   force =     0.00000000    0.00000000    0.00000000
     atom    4 type  2   force =    -0.01220600   -0.00704714   -0.06000890
     atom    5 type  3   force =     0.01142524    0.00659637    0.01493086
     atom    6 type  3   force =     0.04538600    0.02620362    0.02250583
     atom    7 type  3   force =    -0.04538600   -0.02620362   -0.02250583
     atom    8 type  3   force =    -0.01142524   -0.00659637   -0.01493086
     The non-local contrib.  to forces
     atom    1 type  1   force =     0.00000000    0.00000000    0.00000000
     atom    2 type  2   force =    -0.01571526   -0.00907321   -0.03292305
     atom    3 type  2   force =     0.00000000    0.00000000    0.00000000
     atom    4 type  2   force =     0.01571526    0.00907321    0.03292305
     atom    5 type  3   force =     0.01447188    0.00835535   -0.01273862
     atom    6 type  3   force =    -0.02855286   -0.01648500   -0.02041752
     atom    7 type  3   force =     0.02855286    0.01648500    0.02041752
     atom    8 type  3   force =    -0.01447188   -0.00835535    0.01273862
     The ionic contribution  to forces
     atom    1 type  1   force =    -0.00000000   -0.00000000    0.00000000
     atom    2 type  2   force =     0.00000000   -0.00000000    2.67225748
     atom    3 type  2   force =    -0.00000000   -0.00000000   -0.00000000
     atom    4 type  2   force =    -0.00000000   -0.00000000   -2.67225748
     atom    5 type  3   force =    -0.74474172   -0.42997700    0.43811825
     atom    6 type  3   force =     0.74474202    0.42997682    0.98868618
     atom    7 type  3   force =    -0.74474202   -0.42997682   -0.98868618
     atom    8 type  3   force =     0.74474172    0.42997700   -0.43811825
     The local contribution  to forces
     atom    1 type  1   force =     0.00000000    0.00000000    0.00000000
     atom    2 type  2   force =     0.02482042    0.01433008   -2.58457647
     atom    3 type  2   force =    -0.00000000   -0.00000000   -0.00000000
     atom    4 type  2   force =    -0.02482042   -0.01433008    2.58457647
     atom    5 type  3   force =     0.74586105    0.43062327   -0.41428767
     atom    6 type  3   force =    -0.67926072   -0.39217114   -0.95220940
     atom    7 type  3   force =     0.67926072    0.39217114    0.95220940
     atom    8 type  3   force =    -0.74586105   -0.43062327    0.41428767
     The core correction contribution to forces
     atom    1 type  1   force =     0.00000000    0.00000000   -0.00000000
     atom    2 type  2   force =     0.00302445    0.00175028    0.00496147
     atom    3 type  2   force =    -0.00000000   -0.00000000   -0.00000000
     atom    4 type  2   force =    -0.00302445   -0.00175028   -0.00496147
     atom    5 type  3   force =    -0.00415210   -0.00239697    0.00416067
     atom    6 type  3   force =     0.00833703    0.00481472    0.00673264
     atom    7 type  3   force =    -0.00833703   -0.00481472   -0.00673264
     atom    8 type  3   force =     0.00415210    0.00239697   -0.00416067
     The Hubbard contrib.    to forces
     atom    1 type  1   force =     0.00000000    0.00000000    0.00000000
     atom    2 type  2   force =     0.00000000    0.00000000    0.00000000
     atom    3 type  2   force =     0.00000000    0.00000000    0.00000000
     atom    4 type  2   force =     0.00000000    0.00000000    0.00000000
     atom    5 type  3   force =     0.00000000    0.00000000    0.00000000
     atom    6 type  3   force =     0.00000000    0.00000000    0.00000000
     atom    7 type  3   force =     0.00000000    0.00000000    0.00000000
     atom    8 type  3   force =     0.00000000    0.00000000    0.00000000
     The SCF correction term to forces
     atom    1 type  1   force =    -0.00000000   -0.00000000    0.00000000
     atom    2 type  2   force =     0.00007461    0.00004308    0.00028947
     atom    3 type  2   force =     0.00000000    0.00000000    0.00000000
     atom    4 type  2   force =    -0.00007461   -0.00004308   -0.00028947
     atom    5 type  3   force =    -0.00001399   -0.00000808   -0.00032177
     atom    6 type  3   force =     0.00011994    0.00006925   -0.00028606
     atom    7 type  3   force =    -0.00011994   -0.00006925    0.00028606
     atom    8 type  3   force =     0.00001399    0.00000808    0.00032177

     Total force =     0.122063     Total SCF correction =     0.000769

     BFGS Geometry Optimization
     Energy error            =      0.0E+00 Ry
     Gradient error          =      6.0E-02 Ry/Bohr

     number of scf cycles    =   1
     number of bfgs steps    =   0

     energy             new  =   -1060.9671435605 Ry

     new trust radius        =       0.0616418395 bohr
     new conv_thr            =       0.0000010000 Ry


ATOMIC_POSITIONS (angstrom)
Ni            0.0000000000        0.0000000000        0.0000000000
Mn            0.0064591385        0.0037291854        2.5542883407
Mn            0.0000000000        0.0000000000        5.0450660000
Mn           -0.0064591385       -0.0037291854        7.5358436593
As            0.0060459584        2.1083966064        6.3142335713
As            0.0240172201        2.1187723192       11.3633080750
As            1.7988848049        1.0385866053        3.7718899250
As            1.8168560666        1.0489623181        8.8209644287



     Writing config-only to output data dir ./tutorial.save/
     NEW-OLD atomic charge density approx. for the potential

     Check: negative core charge=   -0.000079

     total cpu time spent up to now is        1.6 secs

     Self-consistent Calculation

     iteration #  1     ecut=    40.42 Ry     beta= 0.70
     Davidson diagonalization with overlap
     ethr =  1.00E-06,  avg # of iterations =  9.0

     total cpu time spent up to now is        1.7 secs

     total energy              =   -1060.98026161 Ry
     estimated scf accuracy    <       0.01147442 Ry

     iteration #  2     ecut=    40.42 Ry     beta= 0.70
     Davidson diagonalization with overlap
     ethr =  1.38E-05,  avg # of iterations = 10.0

     total cpu time spent up to now is        1.8 secs

     total energy              =   -1060.92655268 Ry
     estimated scf accuracy    <       1.91793124 Ry

     iteration #  3     ecut=    40.42 Ry     beta= 0.70
     Davidson diagonalization with overlap
     ethr =  1.38E-05,  avg # of iterations =  5.0

     total cpu time spent up to now is        1.9 secs

     total energy              =   -1060.97951251 Ry
     estimated scf accuracy    <       0.08206456 Ry

     iteration #  4     ecut=    40.42 Ry     beta= 0.70
     Davidson diagonalization with overlap
     ethr =  1.38E-05,  avg # of iterations =  5.0

     total cpu time spent up to now is        1.9 secs

     total energy              =   -1060.97785567 Ry
     estimated scf accuracy    <       0.13654668 Ry

     iteration #  5     ecut=    40.42 Ry     beta= 0.70
     Davidson diagonalization with overlap
     ethr =  1.38E-05,  avg # of iterations =  4.0

     total cpu time spent up to now is        2.0 secs

     total energy              =   -1060.98373225 Ry
     estimated scf accuracy    <       0.02319654 Ry

     iteration #  6     ecut=    40.42 Ry     beta= 0.70
     Davidson diagonalization with overlap
     ethr =  1.38E-05,  avg # of iterations =  2.0

     total cpu time spent up to now is        2.0 secs

     total energy              =   -1060.98527533 Ry
     estimated scf accuracy    <       0.00042619 Ry

     iteration #  7     ecut=    40.42 Ry     beta= 0.70
     Davidson diagonalization with overlap
     ethr =  5.13E-07,  avg # of iterations =  5.0

     total cpu time spent up to now is        2.1 secs

     total energy              =   -1060.98538533 Ry
     estimated scf accuracy    <       0.00010578 Ry

     iteration #  8     ecut=    40.42 Ry     beta= 0.70
     Davidson diagonalization with overlap
     ethr =  1.27E-07,  avg # of iterations =  2.0

     total cpu time spent up to now is        2.1 secs

     total energy              =   -1060.98539187 Ry
     estimated scf accuracy    <       0.00003228 Ry

     iteration #  9     ecut=    40.42 Ry     beta= 0.70
     Davidson diagonalization with overlap
     ethr =  3.89E-08,  avg # of iterations =  2.0

     total cpu time spent up to now is        2.2 secs

     total energy              =   -1060.98539641 Ry
     estimated scf accuracy    <       0.00000412 Ry

     iteration # 10     ecut=    40.42 Ry     beta= 0.70
     Davidson diagonalization with overlap
     ethr =  4.96E-09,  avg # of iterations =  4.0

     total cpu time spent up to now is        2.2 secs

     total energy              =   -1060.98539737 Ry
     estimated scf accuracy    <       0.00000100 Ry

     iteration # 11     ecut=    40.42 Ry     beta= 0.70
     Davidson diagonalization with overlap
     ethr =  1.21E-09,  avg # of iterations =  2.0

     total cpu time spent up to now is        2.3 secs

     End of self-consistent calculation

          k = 0.0000 0.0000 0.0000 (  3373 PWs)   bands (ev):

   -90.1110 -64.9788 -64.7177 -64.7170 -50.1514 -50.1492 -49.9305 -34.3636
   -33.8519 -33.8288 -33.7901 -33.6375 -33.6330 -33.5450 -33.5290 -33.5062
    -1.0260   1.7136   1.7631   2.6791   6.4131   6.6792   6.6807   9.1870
     9.2103   9.8373  10.0672  10.3013  10.6629  10.7215  11.0987  11.1622
    11.8726  11.9380  12.1705  12.6792  12.7595  12.9840  13.4905  13.5056
    13.5621  13.6457  13.7343  13.8823  14.5703  15.0955  15.3235  15.6248
    15.6600  16.6542

     the Fermi energy is    13.6689 ev

!    total energy              =   -1060.98539742 Ry
     estimated scf accuracy    <       0.00000005 Ry
     smearing contrib. (-TS)   =      -0.03252882 Ry
     internal energy E=F+TS    =   -1060.95286859 Ry

     The total energy is F=E-TS. E is the sum of the following terms:
     one-electron contribution =    -672.47671512 Ry
     hartree contribution      =     377.78925675 Ry
     xc contribution           =    -163.12675130 Ry
     ewald contribution        =    -603.13865893 Ry

     convergence has been achieved in  11 iterations

     Forces acting on atoms (cartesian axes, Ry/au):

     atom    1 type  1   force =     0.00000000    0.00000000    0.00000000
     atom    2 type  2   force =     0.01948156    0.01124768    0.10297792
     atom    3 type  2   force =     0.00000000    0.00000000    0.00000000
     atom    4 type  2   force =    -0.01948156   -0.01124768   -0.10297792
     atom    5 type  3   force =     0.02020171    0.01166346    0.02039195
     atom    6 type  3   force =     0.05490149    0.03169739    0.01301758
     atom    7 type  3   force =    -0.05490149   -0.03169739   -0.01301758
     atom    8 type  3   force =    -0.02020171   -0.01166346   -0.02039195
     The non-local contrib.  to forces
     atom    1 type  1   force =     0.00000000    0.00000000    0.00000000
     atom    2 type  2   force =    -0.04171959   -0.02408682   -0.01950360
     atom    3 type  2   force =     0.00000000    0.00000000    0.00000000
     atom    4 type  2   force =     0.04171959    0.02408682    0.01950360
     atom    5 type  3   force =     0.01562514    0.00902118   -0.01269614
     atom    6 type  3   force =    -0.03875065   -0.02237270   -0.02035882
     atom    7 type  3   force =     0.03875065    0.02237270    0.02035882
     atom    8 type  3   force =    -0.01562514   -0.00902118    0.01269614
     The ionic contribution  to forces
     atom    1 type  1   force =    -0.00000000   -0.00000000    0.00000000
     atom    2 type  2   force =    -0.32539670   -0.18786788    1.18027876
     atom    3 type  2   force =    -0.00000000   -0.00000000    0.00000000
     atom    4 type  2   force =     0.32539670    0.18786788   -1.18027876
     atom    5 type  3   force =    -0.50732008   -0.29290155    0.46698318
     atom    6 type  3   force =     0.25520431    0.14734210    0.78160309
     atom    7 type  3   force =    -0.25520431   -0.14734210   -0.78160309
     atom    8 type  3   force =     0.50732008    0.29290155   -0.46698318
     The local contribution  to forces
     atom    1 type  1   force =     0.00000000    0.00000000    0.00000000
     atom    2 type  2   force =     0.37962350    0.21917573   -1.06392003
     atom    3 type  2   force =    -0.00000000   -0.00000000   -0.00000000
     atom    4 type  2   force =    -0.37962350   -0.21917573    1.06392003
     atom    5 type  3   force =     0.51702855    0.29850677   -0.43861813
     atom    6 type  3   force =    -0.17693484   -0.10215317   -0.75533376
     atom    7 type  3   force =     0.17693484    0.10215317    0.75533376
     atom    8 type  3   force =    -0.51702855   -0.29850677    0.43861813
     The core correction contribution to forces
     atom    1 type  1   force =    -0.00000000    0.00000000    0.00000000
     atom    2 type  2   force =     0.00688320    0.00399130    0.00589252
     atom    3 type  2   force =    -0.00000000   -0.00000000   -0.00000000
     atom    4 type  2   force =    -0.00688320   -0.00399130   -0.00589252
     atom    5 type  3   force =    -0.00507934   -0.00293227    0.00482421
     atom    6 type  3   force =     0.01533466    0.00885595    0.00713923
     atom    7 type  3   force =    -0.01533466   -0.00885595   -0.00713923
     atom    8 type  3   force =     0.00507934    0.00293227   -0.00482421
     The Hubbard contrib.    to forces
     atom    1 type  1   force =     0.00000000    0.00000000    0.00000000
     atom    2 type  2   force =     0.00000000    0.00000000    0.00000000
     atom    3 type  2   force =     0.00000000    0.00000000    0.00000000
     atom    4 type  2   force =     0.00000000    0.00000000    0.00000000
     atom    5 type  3   force =     0.00000000    0.00000000    0.00000000
     atom    6 type  3   force =     0.00000000    0.00000000    0.00000000
     atom    7 type  3   force =     0.00000000    0.00000000    0.00000000
     atom    8 type  3   force =     0.00000000    0.00000000    0.00000000
     The SCF correction term to forces
     atom    1 type  1   force =    -0.00000000    0.00000000   -0.00000000
     atom    2 type  2   force =     0.00008366    0.00004830    0.00023027
     atom    3 type  2   force =    -0.00000000   -0.00000000   -0.00000000
     atom    4 type  2   force =    -0.00008366   -0.00004830   -0.00023027
     atom    5 type  3   force =    -0.00005271   -0.00003043   -0.00010117
     atom    6 type  3   force =     0.00004693    0.00002709   -0.00003217
     atom    7 type  3   force =    -0.00004693   -0.00002709    0.00003217
     atom    8 type  3   force =     0.00005271    0.00003043    0.00010117

     Total force =     0.180327     Total SCF correction =     0.000401
     Energy error            =      1.8E-02 Ry
     Gradient error          =      1.0E-01 Ry/Bohr

     number of scf cycles    =   2
     number of bfgs steps    =   1

     energy             old  =   -1060.9671435606 Ry
     energy             new  =   -1060.9853974163 Ry

     CASE: energy            _new < energy            _old


     WARNING: bfgs curvature condition failed, Theta= 0.556
     uphill step: resetting bfgs history

     new trust radius        =       0.0678060234 bohr
     new conv_thr            =       0.0000010000 Ry


ATOMIC_POSITIONS (angstrom)
Ni            0.0000000000        0.0000000000        0.0000000000
Mn            0.0130908622        0.0075580128        2.5893430886
Mn            0.0000000000        0.0000000000        5.0450660000
Mn           -0.0130908622       -0.0075580128        7.5007889114
As            0.0129228277        2.1123669687        6.3211752033
As            0.0427062563        2.1295624393       11.3677393922
As            1.7801957687        1.0277964852        3.7674586078
As            1.8099791973        1.0449919558        8.8140227967



     Writing config-only to output data dir ./tutorial.save/
     NEW-OLD atomic charge density approx. for the potential

     Check: negative core charge=   -0.000078

     total cpu time spent up to now is        2.4 secs

     Self-consistent Calculation

     iteration #  1     ecut=    40.42 Ry     beta= 0.70
     Davidson diagonalization with overlap
     ethr =  1.00E-06,  avg # of iterations =  9.0

     total cpu time spent up to now is        2.5 secs

     total energy              =   -1061.00727431 Ry
     estimated scf accuracy    <       0.00555600 Ry

     iteration #  2     ecut=    40.42 Ry     beta= 0.70
     Davidson diagonalization with overlap
     ethr =  6.69E-06,  avg # of iterations =  2.0

     total cpu time spent up to now is        2.6 secs

     total energy              =   -1061.00634953 Ry
     estimated scf accuracy    <       0.00763540 Ry

     iteration #  3     ecut=    40.42 Ry     beta= 0.70
     Davidson diagonalization with overlap
     ethr =  6.69E-06,  avg # of iterations = 11.0

     total cpu time spent up to now is        2.6 secs

     total energy              =   -1061.00131326 Ry
     estimated scf accuracy    <       0.20171785 Ry

     iteration #  4     ecut=    40.42 Ry     beta= 0.70
     Davidson diagonalization with overlap
     ethr =  6.69E-06,  avg # of iterations =  4.0

     total cpu time spent up to now is        2.7 secs

     total energy              =   -1061.00734242 Ry
     estimated scf accuracy    <       0.02514522 Ry

     iteration #  5     ecut=    40.42 Ry     beta= 0.70
     Davidson diagonalization with overlap
     ethr =  6.69E-06,  avg # of iterations =  4.0

     total cpu time spent up to now is        2.7 secs

     total energy              =   -1061.00830872 Ry
     estimated scf accuracy    <       0.01192323 Ry

     iteration #  6     ecut=    40.42 Ry     beta= 0.70
     Davidson diagonalization with overlap
     ethr =  6.69E-06,  avg # of iterations =  2.0

     total cpu time spent up to now is        2.8 secs

     total energy              =   -1061.00882512 Ry
     estimated scf accuracy    <       0.00026294 Ry

     iteration #  7     ecut=    40.42 Ry     beta= 0.70
     Davidson diagonalization with overlap
     ethr =  3.17E-07,  avg # of iterations =  5.0

     total cpu time spent up to now is        2.8 secs

     total energy              =   -1061.00885612 Ry
     estimated scf accuracy    <       0.00054692 Ry

     iteration #  8     ecut=    40.42 Ry     beta= 0.70
     Davidson diagonalization with overlap
     ethr =  3.17E-07,  avg # of iterations =  2.0

     total cpu time spent up to now is        2.9 secs

     total energy              =   -1061.00890380 Ry
     estimated scf accuracy    <       0.00003152 Ry

     iteration #  9     ecut=    40.42 Ry     beta= 0.70
     Davidson diagonalization with overlap
     ethr =  3.80E-08,  avg # of iterations =  4.0

     total cpu time spent up to now is        2.9 secs

     total energy              =   -1061.00890713 Ry
     estimated scf accuracy    <       0.00000323 Ry

     iteration # 10     ecut=    40.42 Ry     beta= 0.70
     Davidson diagonalization with overlap
     ethr =  3.90E-09,  avg # of iterations =  5.0

     total cpu time spent up to now is        3.0 secs

     End of self-consistent calculation

          k = 0.0000 0.0000 0.0000 (  3373 PWs)   bands (ev):

   -90.0439 -65.0277 -64.7396 -64.7385 -50.0850 -50.0830 -49.8647 -34.4481
   -33.8695 -33.8407 -33.7965 -33.6786 -33.6735 -33.5903 -33.5414 -33.5222
    -1.0253   1.7140   1.7505   2.6759   6.4308   6.6986   6.7107   9.1940
     9.2155   9.8487  10.0751  10.3241  10.6437  10.6888  11.1329  11.2259
    11.8301  11.9065  12.1058  12.6590  12.7298  12.9689  13.3747  13.4854
    13.5189  13.6259  13.8425  13.9218  14.5536  15.0881  15.3098  15.6001
    15.6798  16.5897

     the Fermi energy is    13.6682 ev

!    total energy              =   -1061.00890754 Ry
     estimated scf accuracy    <       0.00000024 Ry
     smearing contrib. (-TS)   =      -0.02278393 Ry
     internal energy E=F+TS    =   -1060.98612361 Ry

     The total energy is F=E-TS. E is the sum of the following terms:
     one-electron contribution =    -672.36704475 Ry
     hartree contribution      =     377.70301845 Ry
     xc contribution           =    -163.13250359 Ry
     ewald contribution        =    -603.18959372 Ry

     convergence has been achieved in  10 iterations

     Forces acting on atoms (cartesian axes, Ry/au):

     atom    1 type  1   force =     0.00000000    0.00000000    0.00000000
     atom    2 type  2   force =     0.02344875    0.01353814    0.12873996
     atom    3 type  2   force =     0.00000000    0.00000000    0.00000000
     atom    4 type  2   force =    -0.02344875   -0.01353814   -0.12873996
     atom    5 type  3   force =     0.02754405    0.01590256    0.02609192
     atom    6 type  3   force =     0.06070469    0.03504787    0.00844241
     atom    7 type  3   force =    -0.06070469   -0.03504787   -0.00844241
     atom    8 type  3   force =    -0.02754405   -0.01590256   -0.02609192
     The non-local contrib.  to forces
     atom    1 type  1   force =     0.00000000    0.00000000    0.00000000
     atom    2 type  2   force =    -0.05341596   -0.03083972   -0.00204457
     atom    3 type  2   force =     0.00000000    0.00000000    0.00000000
     atom    4 type  2   force =     0.05341596    0.03083972    0.00204457
     atom    5 type  3   force =     0.01399788    0.00808168   -0.01265324
     atom    6 type  3   force =    -0.04625528   -0.02670550   -0.02045650
     atom    7 type  3   force =     0.04625528    0.02670550    0.02045650
     atom    8 type  3   force =    -0.01399788   -0.00808168    0.01265324
     The ionic contribution  to forces
     atom    1 type  1   force =    -0.00000000   -0.00000000    0.00000000
     atom    2 type  2   force =    -0.58781999   -0.33937804   -0.38573889
     atom    3 type  2   force =    -0.00000000   -0.00000000    0.00000000
     atom    4 type  2   force =     0.58781999    0.33937804    0.38573889
     atom    5 type  3   force =    -0.26891726   -0.15525962    0.52460999
     atom    6 type  3   force =    -0.21387355   -0.12348011    0.64655343
     atom    7 type  3   force =     0.21387355    0.12348011   -0.64655343
     atom    8 type  3   force =     0.26891726    0.15525962   -0.52460999
     The local contribution  to forces
     atom    1 type  1   force =    -0.00000000   -0.00000000    0.00000000
     atom    2 type  2   force =     0.65497953    0.37815261    0.51131723
     atom    3 type  2   force =    -0.00000000   -0.00000000   -0.00000000
     atom    4 type  2   force =    -0.65497953   -0.37815261   -0.51131723
     atom    5 type  3   force =     0.28797802    0.16626438   -0.49122822
     atom    6 type  3   force =     0.29945606    0.17289123   -0.62511110
     atom    7 type  3   force =    -0.29945606   -0.17289123    0.62511110
     atom    8 type  3   force =    -0.28797802   -0.16626438    0.49122822
     The core correction contribution to forces
     atom    1 type  1   force =    -0.00000000    0.00000000    0.00000000
     atom    2 type  2   force =     0.00945541    0.00550414    0.00533314
     atom    3 type  2   force =     0.00000000    0.00000000   -0.00000000
     atom    4 type  2   force =    -0.00945541   -0.00550414   -0.00533314
     atom    5 type  3   force =    -0.00555658   -0.00320769    0.00545049
     atom    6 type  3   force =     0.02136605    0.01233866    0.00749111
     atom    7 type  3   force =    -0.02136605   -0.01233866   -0.00749111
     atom    8 type  3   force =     0.00555658    0.00320769   -0.00545049
     The Hubbard contrib.    to forces
     atom    1 type  1   force =     0.00000000    0.00000000    0.00000000
     atom    2 type  2   force =     0.00000000    0.00000000    0.00000000
     atom    3 type  2   force =     0.00000000    0.00000000    0.00000000
     atom    4 type  2   force =     0.00000000    0.00000000    0.00000000
     atom    5 type  3   force =     0.00000000    0.00000000    0.00000000
     atom    6 type  3   force =     0.00000000    0.00000000    0.00000000
     atom    7 type  3   force =     0.00000000    0.00000000    0.00000000
     atom    8 type  3   force =     0.00000000    0.00000000    0.00000000
     The SCF correction term to forces
     atom    1 type  1   force =     0.00000000   -0.00000000    0.00000000
     atom    2 type  2   force =     0.00023025    0.00013293   -0.00012695
     atom    3 type  2   force =     0.00000000   -0.00000000    0.00000000
     atom    4 type  2   force =    -0.00023025   -0.00013293    0.00012695
     atom    5 type  3   force =     0.00004180    0.00002413   -0.00008709
     atom    6 type  3   force =     0.00001010    0.00000583   -0.00003452
     atom    7 type  3   force =    -0.00001010   -0.00000583    0.00003452
     atom    8 type  3   force =    -0.00004180   -0.00002413    0.00008709

     Total force =     0.219017     Total SCF correction =     0.000443
     Energy error            =      2.4E-02 Ry
     Gradient error          =      1.3E-01 Ry/Bohr

     number of scf cycles    =   3
     number of bfgs steps    =   2

     energy             old  =   -1060.9853974163 Ry
     energy             new  =   -1061.0089075378 Ry

     CASE: energy            _new < energy            _old


     WARNING: bfgs curvature condition failed, Theta= 0.602
     uphill step: resetting bfgs history

     new trust radius        =       0.1017090351 bohr
     new conv_thr            =       0.0000010000 Ry


ATOMIC_POSITIONS (angstrom)
Ni            0.0000000000        0.0000000000        0.0000000000
Mn            0.0226841645        0.0130967085        2.6420129114
Mn            0.0000000000        0.0000000000        5.0450660000
Mn           -0.0226841645       -0.0130967085        7.4481190886
As            0.0241915898        2.1188729916        6.3318498758
As            0.0675416302        2.1439011491       11.3711933337
As            1.7553603948        1.0134577754        3.7640046663
As            1.7987104352        1.0384859329        8.8033481242



     Writing config-only to output data dir ./tutorial.save/
     NEW-OLD atomic charge density approx. for the potential

     Check: negative core charge=   -0.000077

     total cpu time spent up to now is        3.1 secs

     Self-consistent Calculation

     iteration #  1     ecut=    40.42 Ry     beta= 0.70
     Davidson diagonalization with overlap
     ethr =  1.00E-06,  avg # of iterations = 17.0

     total cpu time spent up to now is        3.2 secs

     total energy              =   -1061.04305108 Ry
     estimated scf accuracy    <       0.00782925 Ry

     iteration #  2     ecut=    40.42 Ry     beta= 0.70
     Davidson diagonalization with overlap
     ethr =  9.43E-06,  avg # of iterations =  9.0

     total cpu time spent up to now is        3.3 secs

     total energy              =   -1061.02678399 Ry
     estimated scf accuracy    <       0.30755772 Ry

     iteration #  3     ecut=    40.42 Ry     beta= 0.70
     Davidson diagonalization with overlap
     ethr =  9.43E-06,  avg # of iterations = 10.0

     total cpu time spent up to now is        3.4 secs

     total energy              =   -1061.04119489 Ry
     estimated scf accuracy    <       0.10620161 Ry

     iteration #  4     ecut=    40.42 Ry     beta= 0.70
     Davidson diagonalization with overlap
     ethr =  9.43E-06,  avg # of iterations =  5.0

     total cpu time spent up to now is        3.5 secs

     total energy              =   -1061.04458902 Ry
     estimated scf accuracy    <       0.01269136 Ry

     iteration #  5     ecut=    40.42 Ry     beta= 0.70
     Davidson diagonalization with overlap
     ethr =  9.43E-06,  avg # of iterations =  2.0

     total cpu time spent up to now is        3.5 secs

     total energy              =   -1061.04542330 Ry
     estimated scf accuracy    <       0.00436984 Ry

     iteration #  6     ecut=    40.42 Ry     beta= 0.70
     Davidson diagonalization with overlap
     ethr =  5.26E-06,  avg # of iterations =  2.0

     total cpu time spent up to now is        3.5 secs

     total energy              =   -1061.04559161 Ry
     estimated scf accuracy    <       0.00696111 Ry

     iteration #  7     ecut=    40.42 Ry     beta= 0.70
     Davidson diagonalization with overlap
     ethr =  5.26E-06,  avg # of iterations =  1.0

     total cpu time spent up to now is        3.6 secs

     total energy              =   -1061.04597395 Ry
     estimated scf accuracy    <       0.00015990 Ry

     iteration #  8     ecut=    40.42 Ry     beta= 0.70
     Davidson diagonalization with overlap
     ethr =  1.93E-07,  avg # of iterations =  4.0

     total cpu time spent up to now is        3.6 secs

     total energy              =   -1061.04601061 Ry
     estimated scf accuracy    <       0.00002627 Ry

     iteration #  9     ecut=    40.42 Ry     beta= 0.70
     Davidson diagonalization with overlap
     ethr =  3.17E-08,  avg # of iterations =  2.0

     total cpu time spent up to now is        3.7 secs

     total energy              =   -1061.04601340 Ry
     estimated scf accuracy    <       0.00000127 Ry

     iteration # 10     ecut=    40.42 Ry     beta= 0.70
     Davidson diagonalization with overlap
     ethr =  1.52E-09,  avg # of iterations =  5.0

     total cpu time spent up to now is        3.7 secs

     End of self-consistent calculation

          k = 0.0000 0.0000 0.0000 (  3373 PWs)   bands (ev):

   -89.9769 -65.1053 -64.7888 -64.7869 -50.0228 -50.0216 -49.7908 -34.5777
   -33.8931 -33.8849 -33.8282 -33.7436 -33.7367 -33.6790 -33.5815 -33.5625
    -1.0219   1.7218   1.7373   2.6752   6.4503   6.7254   6.7543   9.1712
     9.2144   9.8672  10.0946  10.3025  10.6167  10.6324  11.1557  11.2990
    11.7367  11.8548  12.0406  12.6155  12.6730  12.9463  13.1849  13.4318
    13.4391  13.5724  13.9724  14.0237  14.5467  15.0764  15.2704  15.5554
    15.7404  16.5238

     the Fermi energy is    13.6303 ev

!    total energy              =   -1061.04601364 Ry
     estimated scf accuracy    <       0.00000018 Ry
     smearing contrib. (-TS)   =      -0.01472661 Ry
     internal energy E=F+TS    =   -1061.03128703 Ry

     The total energy is F=E-TS. E is the sum of the following terms:
     one-electron contribution =    -673.06470788 Ry
     hartree contribution      =     377.98557379 Ry
     xc contribution           =    -163.15117351 Ry
     ewald contribution        =    -602.80097944 Ry

     convergence has been achieved in  10 iterations

     Forces acting on atoms (cartesian axes, Ry/au):

     atom    1 type  1   force =     0.00000000    0.00000000    0.00000000
     atom    2 type  2   force =     0.01647941    0.00951439    0.12503996
     atom    3 type  2   force =     0.00000000    0.00000000    0.00000000
     atom    4 type  2   force =    -0.01647941   -0.00951439   -0.12503996
     atom    5 type  3   force =     0.03052869    0.01762575    0.02740286
     atom    6 type  3   force =     0.05159172    0.02978649    0.00762778
     atom    7 type  3   force =    -0.05159172   -0.02978649   -0.00762778
     atom    8 type  3   force =    -0.03052869   -0.01762575   -0.02740286
     The non-local contrib.  to forces
     atom    1 type  1   force =     0.00000000    0.00000000    0.00000000
     atom    2 type  2   force =    -0.04313161   -0.02490205    0.03479612
     atom    3 type  2   force =     0.00000000    0.00000000    0.00000000
     atom    4 type  2   force =     0.04313161    0.02490205   -0.03479612
     atom    5 type  3   force =     0.00737618    0.00425864   -0.01337502
     atom    6 type  3   force =    -0.05541346   -0.03199298   -0.02218187
     atom    7 type  3   force =     0.05541346    0.03199298    0.02218187
     atom    8 type  3   force =    -0.00737618   -0.00425864    0.01337502
     The ionic contribution  to forces
     atom    1 type  1   force =    -0.00000000   -0.00000000    0.00000000
     atom    2 type  2   force =    -0.94161973   -0.54364442   -2.70049508
     atom    3 type  2   force =    -0.00000000   -0.00000000    0.00000000
     atom    4 type  2   force =     0.94161973    0.54364442    2.70049508
     atom    5 type  3   force =     0.06876236    0.03969979    0.63476199
     atom    6 type  3   force =    -0.90589354   -0.52301802    0.49490889
     atom    7 type  3   force =     0.90589354    0.52301802   -0.49490889
     atom    8 type  3   force =    -0.06876236   -0.03969979   -0.63476199
     The local contribution  to forces
     atom    1 type  1   force =     0.00000000    0.00000000    0.00000000
     atom    2 type  2   force =     0.99200164    0.57273241    2.78836978
     atom    3 type  2   force =    -0.00000000    0.00000000   -0.00000000
     atom    4 type  2   force =    -0.99200164   -0.57273241   -2.78836978
     atom    5 type  3   force =    -0.03989024   -0.02303045   -0.59992573
     atom    6 type  3   force =     0.98430428    0.56828851   -0.47351522
     atom    7 type  3   force =    -0.98430428   -0.56828851    0.47351522
     atom    8 type  3   force =     0.03989024    0.02303045    0.59992573
     The core correction contribution to forces
     atom    1 type  1   force =    -0.00000000    0.00000000   -0.00000000
     atom    2 type  2   force =     0.00936192    0.00547373    0.00186528
     atom    3 type  2   force =     0.00000000    0.00000000   -0.00000000
     atom    4 type  2   force =    -0.00936192   -0.00547373   -0.00186528
     atom    5 type  3   force =    -0.00567746   -0.00327720    0.00611066
     atom    6 type  3   force =     0.02853148    0.01647544    0.00856555
     atom    7 type  3   force =    -0.02853148   -0.01647544   -0.00856555
     atom    8 type  3   force =     0.00567746    0.00327720   -0.00611066
     The Hubbard contrib.    to forces
     atom    1 type  1   force =     0.00000000    0.00000000    0.00000000
     atom    2 type  2   force =     0.00000000    0.00000000    0.00000000
     atom    3 type  2   force =     0.00000000    0.00000000    0.00000000
     atom    4 type  2   force =     0.00000000    0.00000000    0.00000000
     atom    5 type  3   force =     0.00000000    0.00000000    0.00000000
     atom    6 type  3   force =     0.00000000    0.00000000    0.00000000
     atom    7 type  3   force =     0.00000000    0.00000000    0.00000000
     atom    8 type  3   force =     0.00000000    0.00000000    0.00000000
     The SCF correction term to forces
     atom    1 type  1   force =     0.00000000   -0.00000000    0.00000000
     atom    2 type  2   force =    -0.00016252   -0.00009383    0.00050386
     atom    3 type  2   force =     0.00000000   -0.00000000   -0.00000000
     atom    4 type  2   force =     0.00016252    0.00009383   -0.00050386
     atom    5 type  3   force =    -0.00004245   -0.00002451   -0.00016903
     atom    6 type  3   force =     0.00006174    0.00003565   -0.00014957
     atom    7 type  3   force =    -0.00006174   -0.00003565    0.00014957
     atom    8 type  3   force =     0.00004245    0.00002451    0.00016903

     Total force =     0.207835     Total SCF correction =     0.000834
     Energy error            =      3.7E-02 Ry
     Gradient error          =      1.3E-01 Ry/Bohr

     number of scf cycles    =   4
     number of bfgs steps    =   3

     energy             old  =   -1061.0089075378 Ry
     energy             new  =   -1061.0460136440 Ry

     CASE: energy            _new < energy            _old


     WARNING: bfgs curvature condition failed, Theta= 0.860
     new trust radius        =       0.1525635526 bohr
     new conv_thr            =       0.0000010000 Ry


ATOMIC_POSITIONS (angstrom)
Ni            0.0000000000        0.0000000000        0.0000000000
Mn            0.0338448551        0.0195403362        2.7217108474
Mn            0.0000000000        0.0000000000        5.0450660000
Mn           -0.0338448551       -0.0195403362        7.3684211526
As            0.0432558342        2.1298797382        6.3491008201
As            0.1011941721        2.1633304532       11.3761148229
As            1.7217078529        0.9940284713        3.7590831771
As            1.7796461908        1.0274791863        8.7860971799



     Writing config-only to output data dir ./tutorial.save/
     NEW-OLD atomic charge density approx. for the potential

     Check: negative core charge=   -0.000074

     total cpu time spent up to now is        3.9 secs

     Self-consistent Calculation

     iteration #  1     ecut=    40.42 Ry     beta= 0.70
     Davidson diagonalization with overlap
     ethr =  1.00E-06,  avg # of iterations = 10.0

     total cpu time spent up to now is        4.0 secs

     total energy              =   -1061.07991038 Ry
     estimated scf accuracy    <       0.01836583 Ry

     iteration #  2     ecut=    40.42 Ry     beta= 0.70
     Davidson diagonalization with overlap
     ethr =  2.21E-05,  avg # of iterations =  7.0

     total cpu time spent up to now is        4.1 secs

     total energy              =   -1061.00815379 Ry
     estimated scf accuracy    <       1.76282622 Ry

     iteration #  3     ecut=    40.42 Ry     beta= 0.70
     Davidson diagonalization with overlap
     ethr =  2.21E-05,  avg # of iterations =  5.0

     total cpu time spent up to now is        4.2 secs

     total energy              =   -1061.08403693 Ry
     estimated scf accuracy    <       0.04632429 Ry

     iteration #  4     ecut=    40.42 Ry     beta= 0.70
     Davidson diagonalization with overlap
     ethr =  2.21E-05,  avg # of iterations =  7.0

     total cpu time spent up to now is        4.2 secs

     total energy              =   -1061.08474522 Ry
     estimated scf accuracy    <       0.03825548 Ry

     iteration #  5     ecut=    40.42 Ry     beta= 0.70
     Davidson diagonalization with overlap
     ethr =  2.21E-05,  avg # of iterations =  2.0

     total cpu time spent up to now is        4.3 secs

     total energy              =   -1061.08807532 Ry
     estimated scf accuracy    <       0.00240015 Ry

     iteration #  6     ecut=    40.42 Ry     beta= 0.70
     Davidson diagonalization with overlap
     ethr =  2.89E-06,  avg # of iterations =  7.0

     total cpu time spent up to now is        4.3 secs

     total energy              =   -1061.08774660 Ry
     estimated scf accuracy    <       0.01374088 Ry

     iteration #  7     ecut=    40.42 Ry     beta= 0.70
     Davidson diagonalization with overlap
     ethr =  2.89E-06,  avg # of iterations =  4.0

     total cpu time spent up to now is        4.4 secs

     total energy              =   -1061.08843240 Ry
     estimated scf accuracy    <       0.00041471 Ry

     iteration #  8     ecut=    40.42 Ry     beta= 0.70
     Davidson diagonalization with overlap
     ethr =  5.00E-07,  avg # of iterations =  2.0

     total cpu time spent up to now is        4.4 secs

     total energy              =   -1061.08846219 Ry
     estimated scf accuracy    <       0.00013582 Ry

     iteration #  9     ecut=    40.42 Ry     beta= 0.70
     Davidson diagonalization with overlap
     ethr =  1.64E-07,  avg # of iterations =  2.0

     total cpu time spent up to now is        4.5 secs

     total energy              =   -1061.08847684 Ry
     estimated scf accuracy    <       0.00000460 Ry

     iteration # 10     ecut=    40.42 Ry     beta= 0.70
     Davidson diagonalization with overlap
     ethr =  5.55E-09,  avg # of iterations =  5.0

     total cpu time spent up to now is        4.5 secs

     total energy              =   -1061.08847797 Ry
     estimated scf accuracy    <       0.00000216 Ry

     iteration # 11     ecut=    40.42 Ry     beta= 0.70
     Davidson diagonalization with overlap
     ethr =  2.60E-09,  avg # of iterations =  2.0

     total cpu time spent up to now is        4.6 secs

     End of self-consistent calculation

          k = 0.0000 0.0000 0.0000 (  3373 PWs)   bands (ev):

   -89.9140 -65.2080 -64.8656 -64.8612 -49.9754 -49.9632 -49.7101 -34.7642
   -33.9748 -33.9213 -33.8877 -33.8278 -33.8135 -33.8081 -33.6491 -33.6257
    -1.0183   1.7111   1.7400   2.6749   6.4761   6.7629   6.8203   9.0827
     9.1967   9.8915  10.1370  10.2088  10.5452  10.5658  11.1556  11.3808
    11.5842  11.7736  11.9881  12.5407  12.5938  12.8898  12.9249  13.2879
    13.3561  13.4594  14.0565  14.2932  14.5678  15.0879  15.2014  15.4872
    15.8586  16.4059

     the Fermi energy is    13.5216 ev

!    total energy              =   -1061.08847810 Ry
     estimated scf accuracy    <       0.00000007 Ry
     smearing contrib. (-TS)   =      -0.01383420 Ry
     internal energy E=F+TS    =   -1061.07464390 Ry

     The total energy is F=E-TS. E is the sum of the following terms:
     one-electron contribution =    -675.95270291 Ry
     hartree contribution      =     379.32388170 Ry
     xc contribution           =    -163.20151504 Ry
     ewald contribution        =    -601.24430766 Ry

     convergence has been achieved in  11 iterations

     Forces acting on atoms (cartesian axes, Ry/au):

     atom    1 type  1   force =     0.00000000    0.00000000    0.00000000
     atom    2 type  2   force =    -0.00467361   -0.00269831    0.08227797
     atom    3 type  2   force =     0.00000000    0.00000000    0.00000000
     atom    4 type  2   force =     0.00467361    0.00269831   -0.08227797
     atom    5 type  3   force =     0.02365634    0.01365799    0.02109798
     atom    6 type  3   force =     0.01704107    0.00983867    0.00457183
     atom    7 type  3   force =    -0.01704107   -0.00983867   -0.00457183
     atom    8 type  3   force =    -0.02365634   -0.01365799   -0.02109798
     The non-local contrib.  to forces
     atom    1 type  1   force =     0.00000000    0.00000000    0.00000000
     atom    2 type  2   force =    -0.00602625   -0.00347925    0.10823154
     atom    3 type  2   force =     0.00000000    0.00000000    0.00000000
     atom    4 type  2   force =     0.00602625    0.00347925   -0.10823154
     atom    5 type  3   force =    -0.00575173   -0.00332076   -0.01476888
     atom    6 type  3   force =    -0.07122633   -0.04112254   -0.02875269
     atom    7 type  3   force =     0.07122633    0.04112254    0.02875269
     atom    8 type  3   force =     0.00575173    0.00332076    0.01476888
     The ionic contribution  to forces
     atom    1 type  1   force =    -0.00000000   -0.00000000    0.00000000
     atom    2 type  2   force =    -1.36955941   -0.79071553   -6.17269549
     atom    3 type  2   force =    -0.00000000   -0.00000000    0.00000000
     atom    4 type  2   force =     1.36955941    0.79071553    6.17269549
     atom    5 type  3   force =     0.53189057    0.30708699    0.82324606
     atom    6 type  3   force =    -1.94460195   -1.12271658    0.35238172
     atom    7 type  3   force =     1.94460195    1.12271658   -0.35238172
     atom    8 type  3   force =    -0.53189057   -0.30708698   -0.82324606
     The local contribution  to forces
     atom    1 type  1   force =     0.00000000    0.00000000   -0.00000000
     atom    2 type  2   force =     1.36390986    0.78745372    6.15285672
     atom    3 type  2   force =    -0.00000000   -0.00000000   -0.00000000
     atom    4 type  2   force =    -1.36390986   -0.78745372   -6.15285672
     atom    5 type  3   force =    -0.49677068   -0.28681048   -0.79421065
     atom    6 type  3   force =     1.99441414    1.15147569   -0.32995760
     atom    7 type  3   force =    -1.99441414   -1.15147569    0.32995760
     atom    8 type  3   force =     0.49677068    0.28681048    0.79421065
     The core correction contribution to forces
     atom    1 type  1   force =    -0.00000000    0.00000000   -0.00000000
     atom    2 type  2   force =     0.00673950    0.00397920   -0.00633138
     atom    3 type  2   force =     0.00000000    0.00000000   -0.00000000
     atom    4 type  2   force =    -0.00673950   -0.00397920    0.00633138
     atom    5 type  3   force =    -0.00568005   -0.00327826    0.00684001
     atom    6 type  3   force =     0.03839924    0.02217107    0.01087579
     atom    7 type  3   force =    -0.03839924   -0.02217107   -0.01087579
     atom    8 type  3   force =     0.00568005    0.00327826   -0.00684001
     The Hubbard contrib.    to forces
     atom    1 type  1   force =     0.00000000    0.00000000    0.00000000
     atom    2 type  2   force =     0.00000000    0.00000000    0.00000000
     atom    3 type  2   force =     0.00000000    0.00000000    0.00000000
     atom    4 type  2   force =     0.00000000    0.00000000    0.00000000
     atom    5 type  3   force =     0.00000000    0.00000000    0.00000000
     atom    6 type  3   force =     0.00000000    0.00000000    0.00000000
     atom    7 type  3   force =     0.00000000    0.00000000    0.00000000
     atom    8 type  3   force =     0.00000000    0.00000000    0.00000000
     The SCF correction term to forces
     atom    1 type  1   force =     0.00000000   -0.00000000    0.00000000
     atom    2 type  2   force =     0.00022453    0.00012963    0.00021658
     atom    3 type  2   force =     0.00000000   -0.00000000   -0.00000000
     atom    4 type  2   force =    -0.00022453   -0.00012963   -0.00021658
     atom    5 type  3   force =    -0.00003226   -0.00001863   -0.00000857
     atom    6 type  3   force =     0.00005542    0.00003200    0.00002461
     atom    7 type  3   force =    -0.00005542   -0.00003200   -0.00002461
     atom    8 type  3   force =     0.00003226    0.00001863    0.00000857

     Total force =     0.129601     Total SCF correction =     0.000490
     Energy error            =      4.2E-02 Ry
     Gradient error          =      8.2E-02 Ry/Bohr

     number of scf cycles    =   5
     number of bfgs steps    =   4

     energy             old  =   -1061.0460136440 Ry
     energy             new  =   -1061.0884781023 Ry

     CASE: energy            _new < energy            _old

     new trust radius        =       0.2288453290 bohr
     new conv_thr            =       0.0000008228 Ry


ATOMIC_POSITIONS (angstrom)
Ni            0.0000000000        0.0000000000        0.0000000000
Mn            0.0340994890        0.0196873491        2.8428102234
Mn            0.0000000000        0.0000000000        5.0450660000
Mn           -0.0340994890       -0.0196873491        7.2473217766
As            0.0756543971        2.1485850572        6.3784704682
As            0.1342184082        2.1823970048       11.3831801302
As            1.6886836168        0.9749619197        3.7520178698
As            1.7472476279        1.0087738673        8.7567275318



     Writing config-only to output data dir ./tutorial.save/
     NEW-OLD atomic charge density approx. for the potential

     Check: negative core charge=   -0.000075

     total cpu time spent up to now is        4.7 secs

     Self-consistent Calculation

     iteration #  1     ecut=    40.42 Ry     beta= 0.70
     Davidson diagonalization with overlap
     ethr =  1.00E-06,  avg # of iterations = 11.0

     total cpu time spent up to now is        4.9 secs

     total energy              =   -1061.07354700 Ry
     estimated scf accuracy    <       0.05856148 Ry

     iteration #  2     ecut=    40.42 Ry     beta= 0.70
     Davidson diagonalization with overlap
     ethr =  7.06E-05,  avg # of iterations =  6.0

     total cpu time spent up to now is        4.9 secs

     total energy              =   -1060.73544594 Ry
     estimated scf accuracy    <       9.10917159 Ry

     iteration #  3     ecut=    40.42 Ry     beta= 0.70
     Davidson diagonalization with overlap
     ethr =  7.06E-05,  avg # of iterations =  6.0

     total cpu time spent up to now is        5.0 secs

     total energy              =   -1061.10485901 Ry
     estimated scf accuracy    <       0.04161462 Ry

     iteration #  4     ecut=    40.42 Ry     beta= 0.70
     Davidson diagonalization with overlap
     ethr =  5.01E-05,  avg # of iterations =  2.0

     total cpu time spent up to now is        5.0 secs

     total energy              =   -1061.10509365 Ry
     estimated scf accuracy    <       0.04323702 Ry

     iteration #  5     ecut=    40.42 Ry     beta= 0.70
     Davidson diagonalization with overlap
     ethr =  5.01E-05,  avg # of iterations =  2.0

     total cpu time spent up to now is        5.1 secs

     total energy              =   -1061.10848686 Ry
     estimated scf accuracy    <       0.01311211 Ry

     iteration #  6     ecut=    40.42 Ry     beta= 0.70
     Davidson diagonalization with overlap
     ethr =  1.58E-05,  avg # of iterations =  2.0

     total cpu time spent up to now is        5.1 secs

     total energy              =   -1061.10936571 Ry
     estimated scf accuracy    <       0.00587573 Ry

     iteration #  7     ecut=    40.42 Ry     beta= 0.70
     Davidson diagonalization with overlap
     ethr =  7.08E-06,  avg # of iterations =  2.0

     total cpu time spent up to now is        5.2 secs

     total energy              =   -1061.10991427 Ry
     estimated scf accuracy    <       0.00090572 Ry

     iteration #  8     ecut=    40.42 Ry     beta= 0.70
     Davidson diagonalization with overlap
     ethr =  1.09E-06,  avg # of iterations =  6.0

     total cpu time spent up to now is        5.2 secs

     total energy              =   -1061.11003710 Ry
     estimated scf accuracy    <       0.00003564 Ry

     iteration #  9     ecut=    40.42 Ry     beta= 0.70
     Davidson diagonalization with overlap
     ethr =  4.29E-08,  avg # of iterations =  5.0

     total cpu time spent up to now is        5.3 secs

     total energy              =   -1061.11004938 Ry
     estimated scf accuracy    <       0.00000866 Ry

     iteration # 10     ecut=    40.42 Ry     beta= 0.70
     Davidson diagonalization with overlap
     ethr =  1.04E-08,  avg # of iterations =  2.0

     total cpu time spent up to now is        5.3 secs

     End of self-consistent calculation

          k = 0.0000 0.0000 0.0000 (  3373 PWs)   bands (ev):

   -89.8218 -65.3123 -64.9804 -64.9645 -49.9000 -49.8913 -49.5890 -35.0432
   -34.1060 -33.9827 -33.9616 -33.9564 -33.9334 -33.8536 -33.7640 -33.7094
    -1.0199   1.6491   1.7751   2.6719   6.5063   6.8084   6.9389   8.8798
     9.1167   9.9093  10.0682  10.2033  10.4314  10.4612  11.1166  11.3529
    11.5356  11.6786  11.9679  12.4359  12.4448  12.5378  12.9526  13.0898
    13.2314  13.3179  14.2435  14.4854  14.6881  15.1071  15.2592  15.4259
    15.9772  16.2227

     the Fermi energy is    13.3796 ev

!    total energy              =   -1061.11004987 Ry
     estimated scf accuracy    <       0.00000035 Ry
     smearing contrib. (-TS)   =      -0.01343102 Ry
     internal energy E=F+TS    =   -1061.09661884 Ry

     The total energy is F=E-TS. E is the sum of the following terms:
     one-electron contribution =    -683.91311181 Ry
     hartree contribution      =     383.18380976 Ry
     xc contribution           =    -163.31560518 Ry
     ewald contribution        =    -597.05171162 Ry

     convergence has been achieved in  10 iterations

     Forces acting on atoms (cartesian axes, Ry/au):

     atom    1 type  1   force =     0.00000000    0.00000000    0.00000000
     atom    2 type  2   force =    -0.04469836   -0.02580661   -0.00725771
     atom    3 type  2   force =     0.00000000    0.00000000    0.00000000
     atom    4 type  2   force =     0.04469836    0.02580661    0.00725771
     atom    5 type  3   force =     0.01569910    0.00906388    0.00121986
     atom    6 type  3   force =    -0.03676348   -0.02122540   -0.00345831
     atom    7 type  3   force =     0.03676348    0.02122540    0.00345831
     atom    8 type  3   force =    -0.01569910   -0.00906388   -0.00121986
     The non-local contrib.  to forces
     atom    1 type  1   force =     0.00000000    0.00000000    0.00000000
     atom    2 type  2   force =     0.04399207    0.02539884    0.23757201
     atom    3 type  2   force =     0.00000000    0.00000000    0.00000000
     atom    4 type  2   force =    -0.04399207   -0.02539884   -0.23757201
     atom    5 type  3   force =    -0.02719381   -0.01570035   -0.01725293
     atom    6 type  3   force =    -0.09058408   -0.05229874   -0.03785770
     atom    7 type  3   force =     0.09058408    0.05229874    0.03785770
     atom    8 type  3   force =     0.02719381    0.01570035    0.01725293
     The ionic contribution  to forces
     atom    1 type  1   force =    -0.00000000   -0.00000000    0.00000000
     atom    2 type  2   force =    -1.42739056   -0.82410437  -11.36983815
     atom    3 type  2   force =    -0.00000000   -0.00000000    0.00000000
     atom    4 type  2   force =     1.42739056    0.82410437   11.36983815
     atom    5 type  3   force =     1.09506458    0.63223564    1.06833175
     atom    6 type  3   force =    -3.27023195   -1.88806939    0.46978055
     atom    7 type  3   force =     3.27023195    1.88806939   -0.46978055
     atom    8 type  3   force =    -1.09506458   -0.63223564   -1.06833175
     The local contribution  to forces
     atom    1 type  1   force =    -0.00000000    0.00000000    0.00000000
     atom    2 type  2   force =     1.33561872    0.77111983   11.14227030
     atom    3 type  2   force =    -0.00000000   -0.00000000   -0.00000000
     atom    4 type  2   force =    -1.33561872   -0.77111983  -11.14227030
     atom    5 type  3   force =    -1.04707773   -0.60453040   -1.05780567
     atom    6 type  3   force =     3.27299905    1.88966700   -0.44841160
     atom    7 type  3   force =    -3.27299905   -1.88966700    0.44841160
     atom    8 type  3   force =     1.04707773    0.60453040    1.05780567
     The core correction contribution to forces
     atom    1 type  1   force =    -0.00000000    0.00000000    0.00000000
     atom    2 type  2   force =     0.00301947    0.00183101   -0.01851778
     atom    3 type  2   force =     0.00000000    0.00000000   -0.00000000
     atom    4 type  2   force =    -0.00301947   -0.00183101    0.01851778
     atom    5 type  3   force =    -0.00493143   -0.00284692    0.00812559
     atom    6 type  3   force =     0.05084695    0.02935594    0.01305891
     atom    7 type  3   force =    -0.05084695   -0.02935594   -0.01305891
     atom    8 type  3   force =     0.00493143    0.00284692   -0.00812559
     The Hubbard contrib.    to forces
     atom    1 type  1   force =     0.00000000    0.00000000    0.00000000
     atom    2 type  2   force =     0.00000000    0.00000000    0.00000000
     atom    3 type  2   force =     0.00000000    0.00000000    0.00000000
     atom    4 type  2   force =     0.00000000    0.00000000    0.00000000
     atom    5 type  3   force =     0.00000000    0.00000000    0.00000000
     atom    6 type  3   force =     0.00000000    0.00000000    0.00000000
     atom    7 type  3   force =     0.00000000    0.00000000    0.00000000
     atom    8 type  3   force =     0.00000000    0.00000000    0.00000000
     The SCF correction term to forces
     atom    1 type  1   force =     0.00000000   -0.00000000    0.00000000
     atom    2 type  2   force =     0.00002397    0.00001384    0.00125591
     atom    3 type  2   force =     0.00000000   -0.00000000    0.00000000
     atom    4 type  2   force =    -0.00002397   -0.00001384   -0.00125591
     atom    5 type  3   force =    -0.00016264   -0.00009390   -0.00017887
     atom    6 type  3   force =     0.00020678    0.00011939   -0.00002848
     atom    7 type  3   force =    -0.00020678   -0.00011939    0.00002848
     atom    8 type  3   force =     0.00016264    0.00009390    0.00017887

     Total force =     0.098597     Total SCF correction =     0.001846
     Energy error            =      2.2E-02 Ry
     Gradient error          =      4.5E-02 Ry/Bohr

     number of scf cycles    =   6
     number of bfgs steps    =   5

     energy             old  =   -1061.0884781023 Ry
     energy             new  =   -1061.1100498671 Ry

     CASE: energy            _new < energy            _old

     new trust radius        =       0.0404879418 bohr
     new conv_thr            =       0.0000004470 Ry


ATOMIC_POSITIONS (angstrom)
Ni            0.0000000000        0.0000000000        0.0000000000
Mn            0.0155512247        0.0089785038        2.8433810456
Mn            0.0000000000        0.0000000000        5.0450660000
Mn           -0.0155512247       -0.0089785038        7.2467509544
As            0.0830829046        2.1528739080        6.3794402014
As            0.1206600482        2.1745690820       11.3819379226
As            1.7022419768        0.9827898425        3.7532600774
As            1.7398191204        1.0044850165        8.7557577986



     Writing config-only to output data dir ./tutorial.save/
     NEW-OLD atomic charge density approx. for the potential

     Check: negative core charge=   -0.000076

     total cpu time spent up to now is        5.5 secs

     Self-consistent Calculation

     iteration #  1     ecut=    40.42 Ry     beta= 0.70
     Davidson diagonalization with overlap
     ethr =  1.00E-06,  avg # of iterations =  9.0

     total cpu time spent up to now is        5.6 secs

     total energy              =   -1061.11432612 Ry
     estimated scf accuracy    <       0.00376918 Ry

     iteration #  2     ecut=    40.42 Ry     beta= 0.70
     Davidson diagonalization with overlap
     ethr =  4.54E-06,  avg # of iterations =  6.0

     total cpu time spent up to now is        5.6 secs

     total energy              =   -1061.09602430 Ry
     estimated scf accuracy    <       0.47896477 Ry

     iteration #  3     ecut=    40.42 Ry     beta= 0.70
     Davidson diagonalization with overlap
     ethr =  4.54E-06,  avg # of iterations =  6.0

     total cpu time spent up to now is        5.7 secs

     total energy              =   -1061.11420164 Ry
     estimated scf accuracy    <       0.02335026 Ry

     iteration #  4     ecut=    40.42 Ry     beta= 0.70
     Davidson diagonalization with overlap
     ethr =  4.54E-06,  avg # of iterations =  4.0

     total cpu time spent up to now is        5.7 secs

     total energy              =   -1061.11548711 Ry
     estimated scf accuracy    <       0.01592395 Ry

     iteration #  5     ecut=    40.42 Ry     beta= 0.70
     Davidson diagonalization with overlap
     ethr =  4.54E-06,  avg # of iterations =  4.0

     total cpu time spent up to now is        5.8 secs

     total energy              =   -1061.11654553 Ry
     estimated scf accuracy    <       0.00066303 Ry

     iteration #  6     ecut=    40.42 Ry     beta= 0.70
     Davidson diagonalization with overlap
     ethr =  7.99E-07,  avg # of iterations =  4.0

     total cpu time spent up to now is        5.8 secs

     total energy              =   -1061.11659060 Ry
     estimated scf accuracy    <       0.00127336 Ry

     iteration #  7     ecut=    40.42 Ry     beta= 0.70
     Davidson diagonalization with overlap
     ethr =  7.99E-07,  avg # of iterations =  2.0

     total cpu time spent up to now is        5.9 secs

     total energy              =   -1061.11668380 Ry
     estimated scf accuracy    <       0.00002587 Ry

     iteration #  8     ecut=    40.42 Ry     beta= 0.70
     Davidson diagonalization with overlap
     ethr =  3.12E-08,  avg # of iterations =  4.0

     total cpu time spent up to now is        5.9 secs

     total energy              =   -1061.11668951 Ry
     estimated scf accuracy    <       0.00000269 Ry

     iteration #  9     ecut=    40.42 Ry     beta= 0.70
     Davidson diagonalization with overlap
     ethr =  3.24E-09,  avg # of iterations =  3.0

     total cpu time spent up to now is        6.0 secs

     End of self-consistent calculation

          k = 0.0000 0.0000 0.0000 (  3373 PWs)   bands (ev):

   -89.8335 -65.2873 -64.9804 -64.9631 -49.9170 -49.9105 -49.5909 -35.0281
   -34.1116 -33.9696 -33.9495 -33.9491 -33.9238 -33.8204 -33.7591 -33.7040
    -1.0194   1.6512   1.7788   2.6763   6.5013   6.7938   6.9373   8.9058
     9.1139   9.9255  10.0528  10.1980  10.4328  10.4867  11.1057  11.3673
    11.5273  11.6747  11.9679  12.4704  12.4879  12.5456  12.9999  13.0679
    13.2232  13.3381  14.2679  14.4045  14.7099  15.0911  15.2895  15.4317
    15.9604  16.2257

     the Fermi energy is    13.3878 ev

!    total energy              =   -1061.11668965 Ry
     estimated scf accuracy    <       0.00000027 Ry
     smearing contrib. (-TS)   =      -0.01284907 Ry
     internal energy E=F+TS    =   -1061.10384058 Ry

     The total energy is F=E-TS. E is the sum of the following terms:
     one-electron contribution =    -683.31052546 Ry
     hartree contribution      =     382.88299214 Ry
     xc contribution           =    -163.29678979 Ry
     ewald contribution        =    -597.37951746 Ry

     convergence has been achieved in   9 iterations

     Forces acting on atoms (cartesian axes, Ry/au):

     atom    1 type  1   force =     0.00000000    0.00000000    0.00000000
     atom    2 type  2   force =    -0.04784821   -0.02762518    0.00193807
     atom    3 type  2   force =     0.00000000    0.00000000    0.00000000
     atom    4 type  2   force =     0.04784821    0.02762518   -0.00193807
     atom    5 type  3   force =     0.01104235    0.00637530   -0.00092080
     atom    6 type  3   force =    -0.01664641   -0.00961081    0.00529613
     atom    7 type  3   force =     0.01664641    0.00961081   -0.00529613
     atom    8 type  3   force =    -0.01104235   -0.00637530    0.00092080
     The non-local contrib.  to forces
     atom    1 type  1   force =     0.00000000    0.00000000    0.00000000
     atom    2 type  2   force =    -0.00236968   -0.00136814    0.21192648
     atom    3 type  2   force =     0.00000000    0.00000000    0.00000000
     atom    4 type  2   force =     0.00236968    0.00136814   -0.21192648
     atom    5 type  3   force =    -0.02414681   -0.01394117   -0.02098275
     atom    6 type  3   force =    -0.07564498   -0.04367365   -0.02750203
     atom    7 type  3   force =     0.07564498    0.04367365    0.02750203
     atom    8 type  3   force =     0.02414681    0.01394117    0.02098275
     The ionic contribution  to forces
     atom    1 type  1   force =    -0.00000000   -0.00000000    0.00000000
     atom    2 type  2   force =    -0.74448180   -0.42982683  -11.16487903
     atom    3 type  2   force =    -0.00000000   -0.00000000    0.00000000
     atom    4 type  2   force =     0.74448180    0.42982683   11.16487903
     atom    5 type  3   force =     0.94016183    0.54280250    0.88578403
     atom    6 type  3   force =    -2.93011775   -1.69170437    0.71261847
     atom    7 type  3   force =     2.93011775    1.69170437   -0.71261847
     atom    8 type  3   force =    -0.94016183   -0.54280250   -0.88578403
     The local contribution  to forces
     atom    1 type  1   force =     0.00000000    0.00000000    0.00000000
     atom    2 type  2   force =     0.69630464    0.40201167   10.96988351
     atom    3 type  2   force =    -0.00000000   -0.00000000   -0.00000000
     atom    4 type  2   force =    -0.69630464   -0.40201167  -10.96988351
     atom    5 type  3   force =    -0.89995620   -0.51958975   -0.87554994
     atom    6 type  3   force =     2.94340256    1.69937438   -0.68943808
     atom    7 type  3   force =    -2.94340256   -1.69937438    0.68943808
     atom    8 type  3   force =     0.89995620    0.51958975    0.87554994
     The core correction contribution to forces
     atom    1 type  1   force =    -0.00000000    0.00000000    0.00000000
     atom    2 type  2   force =     0.00331330    0.00197788   -0.01525131
     atom    3 type  2   force =     0.00000000    0.00000000   -0.00000000
     atom    4 type  2   force =    -0.00331330   -0.00197788    0.01525131
     atom    5 type  3   force =    -0.00501265   -0.00289420    0.00986758
     atom    6 type  3   force =     0.04571535    0.02639377    0.00974259
     atom    7 type  3   force =    -0.04571535   -0.02639377   -0.00974259
     atom    8 type  3   force =     0.00501265    0.00289420   -0.00986758
     The Hubbard contrib.    to forces
     atom    1 type  1   force =     0.00000000    0.00000000    0.00000000
     atom    2 type  2   force =     0.00000000    0.00000000    0.00000000
     atom    3 type  2   force =     0.00000000    0.00000000    0.00000000
     atom    4 type  2   force =     0.00000000    0.00000000    0.00000000
     atom    5 type  3   force =     0.00000000    0.00000000    0.00000000
     atom    6 type  3   force =     0.00000000    0.00000000    0.00000000
     atom    7 type  3   force =     0.00000000    0.00000000    0.00000000
     atom    8 type  3   force =     0.00000000    0.00000000    0.00000000
     The SCF correction term to forces
     atom    1 type  1   force =    -0.00000000   -0.00000000   -0.00000000
     atom    2 type  2   force =    -0.00064276   -0.00037109    0.00025841
     atom    3 type  2   force =     0.00000000    0.00000000    0.00000000
     atom    4 type  2   force =     0.00064276    0.00037109   -0.00025841
     atom    5 type  3   force =    -0.00000376   -0.00000217   -0.00003972
     atom    6 type  3   force =    -0.00000161   -0.00000093   -0.00012482
     atom    7 type  3   force =     0.00000161    0.00000093    0.00012482
[...]

     iteration #  8     ecut=    40.42 Ry     beta= 0.70
     Davidson diagonalization with overlap
     ethr =  7.67E-10,  avg # of iterations =  1.0

     total cpu time spent up to now is       18.6 secs

     total energy              =   -1061.17773769 Ry
     estimated scf accuracy    <       0.00000017 Ry

     iteration #  9     ecut=    40.42 Ry     beta= 0.70
     Davidson diagonalization with overlap
     ethr =  2.09E-10,  avg # of iterations =  4.0

     total cpu time spent up to now is       18.7 secs

     End of self-consistent calculation

          k = 0.0000 0.0000 0.0000 (  3373 PWs)   bands (ev):

   -89.1900 -65.2285 -65.1774 -65.1188 -49.6664 -48.9587 -48.8846 -34.9942
   -34.4885 -34.2991 -33.9763 -33.9717 -33.9527 -33.9122 -33.7608 -33.7251
    -1.6815   0.6838   1.6966   3.5508   6.5681   6.8344   7.3389   8.8548
     9.3757   9.4995   9.8220   9.8521   9.9192  10.5527  10.7849  11.4377
    11.6878  12.1163  12.1675  12.2790  12.3566  12.8849  12.9213  13.1491
    13.2018  13.9100  14.0275  14.0494  14.8738  15.1348  15.2496  15.2886
    15.3778  16.3689

     the Fermi energy is    13.8459 ev

!    total energy              =   -1061.17773770 Ry
     estimated scf accuracy    <          8.2E-09 Ry
     smearing contrib. (-TS)   =      -0.01406895 Ry
     internal energy E=F+TS    =   -1061.16366875 Ry

     The total energy is F=E-TS. E is the sum of the following terms:
     one-electron contribution =    -685.22878996 Ry
     hartree contribution      =     383.96679653 Ry
     xc contribution           =    -163.40882528 Ry
     ewald contribution        =    -596.49285004 Ry

     convergence has been achieved in   9 iterations

     Forces acting on atoms (cartesian axes, Ry/au):

     atom    1 type  1   force =     0.00000000    0.00000000    0.00000000
     atom    2 type  2   force =     0.00008754    0.00005054    0.00108706
     atom    3 type  2   force =     0.00000000    0.00000000    0.00000000
     atom    4 type  2   force =    -0.00008754   -0.00005054   -0.00108706
     atom    5 type  3   force =    -0.00053680   -0.00030992   -0.00028247
     atom    6 type  3   force =    -0.00045752   -0.00026415    0.00007483
     atom    7 type  3   force =     0.00045752    0.00026415   -0.00007483
     atom    8 type  3   force =     0.00053680    0.00030992    0.00028247
     The non-local contrib.  to forces
     atom    1 type  1   force =     0.00000000    0.00000000    0.00000000
     atom    2 type  2   force =    -0.06390483   -0.03689547    0.19297098
     atom    3 type  2   force =     0.00000000    0.00000000    0.00000000
     atom    4 type  2   force =     0.06390483    0.03689547   -0.19297098
     atom    5 type  3   force =    -0.01324598   -0.00764757    0.01982414
     atom    6 type  3   force =    -0.02523070   -0.01456695   -0.08523131
     atom    7 type  3   force =     0.02523070    0.01456695    0.08523131
     atom    8 type  3   force =     0.01324598    0.00764757   -0.01982414
     The ionic contribution  to forces
     atom    1 type  1   force =    -0.00000000   -0.00000000    0.00000000
     atom    2 type  2   force =     3.74109754    2.15992359   -7.76531991
     atom    3 type  2   force =     0.00000000   -0.00000000    0.00000000
     atom    4 type  2   force =    -3.74109754   -2.15992359    7.76531991
     atom    5 type  3   force =    -0.89704286   -0.51790811   -1.75003876
     atom    6 type  3   force =    -2.23400983   -1.28980629    0.34435203
     atom    7 type  3   force =     2.23400983    1.28980629   -0.34435203
     atom    8 type  3   force =     0.89704286    0.51790811    1.75003876
     The local contribution  to forces
     atom    1 type  1   force =     0.00000000    0.00000000    0.00000000
     atom    2 type  2   force =    -3.68079320   -2.12510695    7.59223180
     atom    3 type  2   force =    -0.00000000   -0.00000000    0.00000000
     atom    4 type  2   force =     3.68079320    2.12510695   -7.59223180
     atom    5 type  3   force =     0.90142822    0.52044003    1.71512738
     atom    6 type  3   force =     2.22222140    1.28300022   -0.30007873
     atom    7 type  3   force =    -2.22222140   -1.28300022    0.30007873
     atom    8 type  3   force =    -0.90142822   -0.52044003   -1.71512738
     The core correction contribution to forces
     atom    1 type  1   force =     0.00000000    0.00000000   -0.00000000
     atom    2 type  2   force =     0.00347485    0.00199275   -0.01873290
     atom    3 type  2   force =     0.00000000    0.00000000    0.00000000
     atom    4 type  2   force =    -0.00347485   -0.00199275    0.01873290
     atom    5 type  3   force =     0.00833439    0.00481007    0.01483361
     atom    6 type  3   force =     0.03655153    0.02110389    0.04100855
     atom    7 type  3   force =    -0.03655153   -0.02110389   -0.04100855
     atom    8 type  3   force =    -0.00833439   -0.00481007   -0.01483361
     The Hubbard contrib.    to forces
     atom    1 type  1   force =     0.00000000    0.00000000    0.00000000
     atom    2 type  2   force =     0.00000000    0.00000000    0.00000000
     atom    3 type  2   force =     0.00000000    0.00000000    0.00000000
     atom    4 type  2   force =     0.00000000    0.00000000    0.00000000
     atom    5 type  3   force =     0.00000000    0.00000000    0.00000000
     atom    6 type  3   force =     0.00000000    0.00000000    0.00000000
     atom    7 type  3   force =     0.00000000    0.00000000    0.00000000
     atom    8 type  3   force =     0.00000000    0.00000000    0.00000000
     The SCF correction term to forces
     atom    1 type  1   force =     0.00000000    0.00000000   -0.00000000
     atom    2 type  2   force =     0.00021904    0.00012646   -0.00006291
     atom    3 type  2   force =    -0.00000000    0.00000000    0.00000000
     atom    4 type  2   force =    -0.00021904   -0.00012646    0.00006291
     atom    5 type  3   force =    -0.00000981   -0.00000566   -0.00002884
     atom    6 type  3   force =     0.00000972    0.00000561    0.00002429
     atom    7 type  3   force =    -0.00000972   -0.00000561   -0.00002429
     atom    8 type  3   force =     0.00000981    0.00000566    0.00002884

     Total force =     0.001970     Total SCF correction =     0.000373
     SCF correction compared to forces is large: reduce conv_thr to get better values
     Energy error            =      2.2E-05 Ry
     Gradient error          =      1.1E-03 Ry/Bohr

     number of scf cycles    =  25
     number of bfgs steps    =  24

     energy             old  =   -1061.1777161950 Ry
     energy             new  =   -1061.1777376983 Ry

     CASE: energy            _new < energy            _old

     new trust radius        =       0.0041650227 bohr
     new conv_thr            =       0.0000000100 Ry


ATOMIC_POSITIONS (angstrom)
Ni            0.0000000000        0.0000000000        0.0000000000
Mn           -0.2997163265       -0.1730413018        2.8077417174
Mn            0.0000000000        0.0000000000        5.0450660000
Mn            0.2997163265        0.1730413018        7.2823902826
As            0.1504956539        2.1917946770        6.1804892990
As            0.2366007474        2.2415074759       11.8367466147
As            1.5863012776        0.9158514486        3.2984513853
As            1.6724063711        0.9655642475        8.9547087010



     Writing config-only to output data dir ./tutorial.save/
     NEW-OLD atomic charge density approx. for the potential

     Check: negative core charge=   -0.000075

     total cpu time spent up to now is       18.8 secs

     Self-consistent Calculation

     iteration #  1     ecut=    40.42 Ry     beta= 0.70
     Davidson diagonalization with overlap
     ethr =  1.00E-06,  avg # of iterations =  3.0

     Threshold (ethr) on eigenvalues was too large:
     Diagonalizing with lowered threshold

     Davidson diagonalization with overlap
     ethr =  3.95E-08,  avg # of iterations =  4.0

     total cpu time spent up to now is       18.9 secs

     total energy              =   -1061.17772029 Ry
     estimated scf accuracy    <       0.00003465 Ry

     iteration #  2     ecut=    40.42 Ry     beta= 0.70
     Davidson diagonalization with overlap
     ethr =  4.18E-08,  avg # of iterations =  6.0

     total cpu time spent up to now is       19.0 secs

     total energy              =   -1061.17747132 Ry
     estimated scf accuracy    <       0.00745243 Ry

     iteration #  3     ecut=    40.42 Ry     beta= 0.70
     Davidson diagonalization with overlap
     ethr =  4.18E-08,  avg # of iterations =  7.0

     total cpu time spent up to now is       19.1 secs

     total energy              =   -1061.17772752 Ry
     estimated scf accuracy    <       0.00015870 Ry

     iteration #  4     ecut=    40.42 Ry     beta= 0.70
     Davidson diagonalization with overlap
     ethr =  4.18E-08,  avg # of iterations =  4.0

     total cpu time spent up to now is       19.1 secs

     total energy              =   -1061.17773964 Ry
     estimated scf accuracy    <       0.00005331 Ry

     iteration #  5     ecut=    40.42 Ry     beta= 0.70
     Davidson diagonalization with overlap
     ethr =  4.18E-08,  avg # of iterations =  2.0

     total cpu time spent up to now is       19.2 secs

     total energy              =   -1061.17774183 Ry
     estimated scf accuracy    <       0.00001316 Ry

     iteration #  6     ecut=    40.42 Ry     beta= 0.70
     Davidson diagonalization with overlap
     ethr =  1.59E-08,  avg # of iterations =  2.0

     total cpu time spent up to now is       19.2 secs

     total energy              =   -1061.17774345 Ry
     estimated scf accuracy    <       0.00000103 Ry

     iteration #  7     ecut=    40.42 Ry     beta= 0.70
     Davidson diagonalization with overlap
     ethr =  1.25E-09,  avg # of iterations =  2.0

     total cpu time spent up to now is       19.2 secs

     total energy              =   -1061.17774358 Ry
     estimated scf accuracy    <       0.00000005 Ry

     iteration #  8     ecut=    40.42 Ry     beta= 0.70
     Davidson diagonalization with overlap
     ethr =  6.04E-11,  avg # of iterations =  6.0

     total cpu time spent up to now is       19.3 secs

     total energy              =   -1061.17774360 Ry
     estimated scf accuracy    <       0.00000006 Ry

     iteration #  9     ecut=    40.42 Ry     beta= 0.70
     Davidson diagonalization with overlap
     ethr =  6.04E-11,  avg # of iterations =  2.0

     total cpu time spent up to now is       19.3 secs

     total energy              =   -1061.17774360 Ry
     estimated scf accuracy    <       0.00000001 Ry

     iteration # 10     ecut=    40.42 Ry     beta= 0.70
     Davidson diagonalization with overlap
     ethr =  1.46E-11,  avg # of iterations =  5.0

     total cpu time spent up to now is       19.4 secs

     End of self-consistent calculation

          k = 0.0000 0.0000 0.0000 (  3373 PWs)   bands (ev):

   -89.1902 -65.2317 -65.1793 -65.1211 -49.6670 -48.9593 -48.8840 -35.0012
   -34.4907 -34.3002 -33.9785 -33.9741 -33.9540 -33.9135 -33.7628 -33.7282
    -1.6800   0.6841   1.6961   3.5508   6.5701   6.8344   7.3384   8.8542
     9.3739   9.4973   9.8196   9.8515   9.9166  10.5480  10.7844  11.4356
    11.6855  12.1157  12.1666  12.2790  12.3577  12.8830  12.9195  13.1461
    13.2011  13.9092  14.0293  14.0512  14.8733  15.1367  15.2477  15.2862
    15.3796  16.3665

     the Fermi energy is    13.8464 ev

!    total energy              =   -1061.17774360 Ry
     estimated scf accuracy    <          3.0E-10 Ry
     smearing contrib. (-TS)   =      -0.01401243 Ry
     internal energy E=F+TS    =   -1061.16373117 Ry

     The total energy is F=E-TS. E is the sum of the following terms:
     one-electron contribution =    -685.35046253 Ry
     hartree contribution      =     384.02432723 Ry
     xc contribution           =    -163.41001923 Ry
     ewald contribution        =    -596.42757664 Ry

     convergence has been achieved in  10 iterations

     Forces acting on atoms (cartesian axes, Ry/au):

     atom    1 type  1   force =     0.00000000    0.00000000    0.00000000
     atom    2 type  2   force =    -0.00013878   -0.00008012    0.00041302
     atom    3 type  2   force =     0.00000000    0.00000000    0.00000000
     atom    4 type  2   force =     0.00013878    0.00008012   -0.00041302
     atom    5 type  3   force =    -0.00019273   -0.00011127    0.00006795
     atom    6 type  3   force =    -0.00036800   -0.00021247    0.00000076
     atom    7 type  3   force =     0.00036800    0.00021247   -0.00000076
     atom    8 type  3   force =     0.00019273    0.00011127   -0.00006795
     The non-local contrib.  to forces
     atom    1 type  1   force =     0.00000000    0.00000000    0.00000000
     atom    2 type  2   force =    -0.06348135   -0.03665098    0.19566532
     atom    3 type  2   force =     0.00000000    0.00000000    0.00000000
     atom    4 type  2   force =     0.06348135    0.03665098   -0.19566532
     atom    5 type  3   force =    -0.01291808   -0.00745826    0.02006553
     atom    6 type  3   force =    -0.02483147   -0.01433645   -0.08615339
     atom    7 type  3   force =     0.02483147    0.01433645    0.08615339
     atom    8 type  3   force =     0.01291808    0.00745826   -0.02006553
     The ionic contribution  to forces
     atom    1 type  1   force =    -0.00000000   -0.00000000    0.00000000
     atom    2 type  2   force =     3.71989108    2.14768003   -7.85271471
     atom    3 type  2   force =     0.00000000   -0.00000000    0.00000000
     atom    4 type  2   force =    -3.71989108   -2.14768003    7.85271471
     atom    5 type  3   force =    -0.87884726   -0.50740288   -1.73727398
     atom    6 type  3   force =    -2.24856317   -1.29820867    0.35050055
     atom    7 type  3   force =     2.24856317    1.29820867   -0.35050055
     atom    8 type  3   force =     0.87884726    0.50740288    1.73727398
     The local contribution  to forces
     atom    1 type  1   force =     0.00000000   -0.00000000   -0.00000000
     atom    2 type  2   force =    -3.66007225   -2.11314370    7.67646058
     atom    3 type  2   force =    -0.00000000   -0.00000000    0.00000000
     atom    4 type  2   force =     3.66007225    2.11314370   -7.67646058
     atom    5 type  3   force =     0.88340109    0.51003205    1.70251703
     atom    6 type  3   force =     2.23643771    1.29120801   -0.30546041
     atom    7 type  3   force =    -2.23643771   -1.29120801    0.30546041
     atom    8 type  3   force =    -0.88340109   -0.51003206   -1.70251703
     The core correction contribution to forces
     atom    1 type  1   force =     0.00000000    0.00000000   -0.00000000
     atom    2 type  2   force =     0.00349288    0.00200193   -0.01896671
     atom    3 type  2   force =     0.00000000    0.00000000    0.00000000
     atom    4 type  2   force =    -0.00349288   -0.00200193    0.01896671
     atom    5 type  3   force =     0.00816888    0.00471451    0.01475785
     atom    6 type  3   force =     0.03658943    0.02112577    0.04110930
     atom    7 type  3   force =    -0.03658943   -0.02112577   -0.04110930
     atom    8 type  3   force =    -0.00816888   -0.00471451   -0.01475785
     The Hubbard contrib.    to forces
     atom    1 type  1   force =     0.00000000    0.00000000    0.00000000
     atom    2 type  2   force =     0.00000000    0.00000000    0.00000000
     atom    3 type  2   force =     0.00000000    0.00000000    0.00000000
     atom    4 type  2   force =     0.00000000    0.00000000    0.00000000
     atom    5 type  3   force =     0.00000000    0.00000000    0.00000000
     atom    6 type  3   force =     0.00000000    0.00000000    0.00000000
     atom    7 type  3   force =     0.00000000    0.00000000    0.00000000
     atom    8 type  3   force =     0.00000000    0.00000000    0.00000000
     The SCF correction term to forces
     atom    1 type  1   force =     0.00000000    0.00000000    0.00000000
     atom    2 type  2   force =     0.00003726    0.00002151   -0.00003146
     atom    3 type  2   force =    -0.00000000   -0.00000000    0.00000000
     atom    4 type  2   force =    -0.00003726   -0.00002151    0.00003146
     atom    5 type  3   force =     0.00000342    0.00000197    0.00000154
     atom    6 type  3   force =    -0.00000087   -0.00000050    0.00000471
     atom    7 type  3   force =     0.00000087    0.00000050   -0.00000471
     atom    8 type  3   force =    -0.00000342   -0.00000197   -0.00000154

     Total force =     0.000928     Total SCF correction =     0.000076
     Energy error            =      5.9E-06 Ry
     Gradient error          =      4.1E-04 Ry/Bohr

     bfgs converged in  26 scf cycles and  25 bfgs steps
     (criteria: energy <  1.0E-04 Ry, force <  1.0E-03 Ry/Bohr)

     End of BFGS Geometry Optimization

     Final energy             =   -1061.1777435986 Ry

     File ./tutorial.bfgs deleted, as requested
Begin final coordinates

ATOMIC_POSITIONS (angstrom)
Ni            0.0000000000        0.0000000000        0.0000000000
Mn           -0.2997163265       -0.1730413018        2.8077417174
Mn            0.0000000000        0.0000000000        5.0450660000
Mn            0.2997163265        0.1730413018        7.2823902826
As            0.1504956539        2.1917946770        6.1804892990
As            0.2366007474        2.2415074759       11.8367466147
As            1.5863012776        0.9158514486        3.2984513853
As            1.6724063711        0.9655642475        8.9547087010
End final coordinates



     Writing all to output data dir ./tutorial.save/
 
     init_run     :      0.13s CPU      0.15s WALL (       1 calls)
     electrons    :     14.96s CPU     15.75s WALL (      26 calls)
     update_pot   :      1.37s CPU      1.39s WALL (      25 calls)
     forces       :      1.28s CPU      1.40s WALL (      26 calls)

     Called by init_run:
     wfcinit      :      0.02s CPU      0.02s WALL (       1 calls)
     potinit      :      0.02s CPU      0.02s WALL (       1 calls)
     hinit0       :      0.08s CPU      0.08s WALL (       1 calls)

     Called by electrons:
     c_bands      :      9.71s CPU     10.06s WALL (     268 calls)
     sum_band     :      2.92s CPU      2.99s WALL (     268 calls)
     v_of_rho     :      0.54s CPU      0.55s WALL (     293 calls)
     newd         :      1.85s CPU      1.87s WALL (     293 calls)
     mix_rho      :      0.08s CPU      0.08s WALL (     268 calls)

     Called by c_bands:
     init_us_2    :      0.04s CPU      0.05s WALL (     537 calls)
     init_us_2:cp :      0.04s CPU      0.04s WALL (     537 calls)
     cegterg      :      9.49s CPU      9.77s WALL (     268 calls)

     Called by *egterg:
     cdiaghg      :      3.58s CPU      3.61s WALL (    1430 calls)
     h_psi        :      4.97s CPU      5.19s WALL (    1457 calls)
     s_psi        :      0.14s CPU      0.15s WALL (    1457 calls)
     g_psi        :      0.02s CPU      0.02s WALL (    1188 calls)

     Called by h_psi:
     h_psi:calbec :      0.24s CPU      0.25s WALL (    1457 calls)
     vloc_psi     :      4.58s CPU      4.77s WALL (    1457 calls)
     add_vuspsi   :      0.14s CPU      0.15s WALL (    1457 calls)

     General routines
     calbec       :      0.33s CPU      0.35s WALL (    1829 calls)
     fft          :      0.54s CPU      0.56s WALL (    3535 calls)
     ffts         :      0.03s CPU      0.04s WALL (     268 calls)
     fftw         :      4.96s CPU      5.17s WALL (   90198 calls)
 
     Parallel routines
 
     PWSCF        :     18.26s CPU     19.54s WALL

 
   This run was terminated on:  14: 7:20  30May2023            

=------------------------------------------------------------------------------=
   JOB DONE.
=------------------------------------------------------------------------------=
