
     Program PWSCF v.7.2 starts on 30May2023 at 15: 7: 4 

     This program is part of the open-source Quantum ESPRESSO suite
     for quantum simulation of materials; please cite
         "P. Giannozzi et al., J. Phys.:Condens. Matter 21 395502 (2009);
         "P. Giannozzi et al., J. Phys.:Condens. Matter 29 465901 (2017);
         "P. Giannozzi et al., J. Chem. Phys. 152 154105 (2020);
          URL http://www.quantum-espresso.org", 
     in publications or presentations arising from this work. More details at
     http://www.quantum-espresso.org/quote

     Parallel version (MPI), running on    28 processors

     MPI processes distributed on     1 nodes
     36672 MiB available memory on the printing compute node when the environment starts
 
     Waiting for input...
     Reading input from standard input
Warning: card &CELL ignored
Warning: card / ignored

     Current dimensions of program PWSCF are:
     Max number of different atomic species (ntypx) = 10
     Max number of k-points (npk) =  40000
     Max angular momentum in pseudopotentials (lmaxx) =  4
     file Mn.pbesol-spn-rrkjus_psl.0.3.1.UPF: wavefunction(s)  3D renormalized
     Message from routine setup:
     using ibrav=0 with symmetry is DISCOURAGED, use correct ibrav instead
 
     R & G space division:  proc/nbgrp/npool/nimage =      28
     Subspace diagonalization in iterative solution of the eigenvalue problem:
     one sub-group per band group will be used
     scalapack distributed-memory algorithm (size of sub-group:  2*  2 procs)

 
     Parallelization info
     --------------------
     sticks:   dense  smooth     PW     G-vecs:    dense   smooth      PW
     Min         142     142     35                 3884     3884     483
     Max         143     143     36                 3887     3887     486
     Sum        3977    3977    985               108791   108791   13539
 
     Using Slab Decomposition
 


     bravais-lattice index     =            0
     lattice parameter (alat)  =      23.5253  a.u.
     unit-cell volume          =    3135.2395 (a.u.)^3
     number of atoms/cell      =           32
     number of atomic types    =            3
     number of electrons       =       365.00
     number of Kohn-Sham states=          220
     kinetic-energy cutoff     =      40.4242  Ry
     charge density cutoff     =     161.6969  Ry
     scf convergence threshold =      1.0E-06
     mixing beta               =       0.7000
     number of iterations used =            8  plain     mixing
     energy convergence thresh.=      1.0E-04
     force convergence thresh. =      1.0E-03
     Exchange-correlation= PBESOL
                           (   1   4  10   8   0   0   0)
     nstep                     =           50


     celldm(1)=  23.525255  celldm(2)=   0.000000  celldm(3)=   0.000000
     celldm(4)=   0.000000  celldm(5)=   0.000000  celldm(6)=   0.000000

     crystal axes: (cart. coord. in units of alat)
               a(1) = (   0.292859   0.507246   0.810516 )  
               a(2) = (  -0.292859   0.507246   0.000000 )  
               a(3) = (   0.000000   0.000000   0.810516 )  

     reciprocal axes: (cart. coord. in units 2 pi/alat)
               b(1) = (  1.707309  0.985715  0.000000 )  
               b(2) = ( -1.707309  0.985715  0.000000 )  
               b(3) = ( -1.707309 -0.985715  1.233783 )  


     PseudoPot. # 1 for Ni read from file:
     /home/valmzztt/Intermetallic_alloys/pseudos/Ni.pbesol-spn-rrkjus_psl.1.0.0.UPF
     MD5 check sum: 6fc0a587bf949a08f2faed986b854013
     Pseudo is Ultrasoft + core correction, Zval = 18.0
     Generated using &quot;atomic&quot; code by A. Dal Corso  v.6.3
     Using radial grid of 1195 points,  6 beta functions with: 
                l(1) =   0
                l(2) =   0
                l(3) =   1
                l(4) =   1
                l(5) =   2
                l(6) =   2
     Q(r) pseudized with 0 coefficients 


     PseudoPot. # 2 for As read from file:
     /home/valmzztt/Intermetallic_alloys/pseudos/As.pbesol-n-rrkjus_psl.1.0.0.UPF
     MD5 check sum: 2fb13bbab3d0b4e108be5408f3d6fe7c
     Pseudo is Ultrasoft + core correction, Zval =  5.0
     Generated using &quot;atomic&quot; code by A. Dal Corso  v.6.3
     Using radial grid of 1209 points,  4 beta functions with: 
                l(1) =   0
                l(2) =   0
                l(3) =   1
                l(4) =   1
     Q(r) pseudized with 0 coefficients 


     PseudoPot. # 3 for Mn read from file:
     /home/valmzztt/Intermetallic_alloys/pseudos/Mn.pbesol-spn-rrkjus_psl.0.3.1.UPF
     MD5 check sum: 61e28eea34dae291f95a967fe31318f1
     Pseudo is Ultrasoft + core correction, Zval = 15.0
     Generated using &quot;atomic&quot; code by A. Dal Corso  v.6.3
     Using radial grid of 1187 points,  6 beta functions with: 
                l(1) =   0
                l(2) =   0
                l(3) =   1
                l(4) =   1
                l(5) =   2
                l(6) =   2
     Q(r) pseudized with 0 coefficients 


     atomic species   valence    mass     pseudopotential
        Ni            18.00    58.69340     Ni( 1.00)
        As             5.00    74.92159     As( 1.00)
        Mn            15.00    54.93804     Mn( 1.00)

     12 Sym. Ops., with inversion, found



   Cartesian axes

     site n.     atom                  positions (alat units)
         1           Ni  tau(   1) = (  -0.1464293   0.2536229   0.0000000  )
         2           Ni  tau(   2) = (  -0.1464293   0.2536229   0.2026289  )
         3           Ni  tau(   3) = (  -0.1464293   0.2536229   0.4052578  )
         4           Ni  tau(   4) = (  -0.1464293   0.2536229   0.6078867  )
         5           As  tau(   5) = (  -0.1464293   0.4227049   0.5065723  )
         6           As  tau(   6) = (  -0.1464293   0.4227049   0.9118301  )
         7           As  tau(   7) = (  -0.1464293   0.5917868   0.3039434  )
         8           As  tau(   8) = (  -0.1464293   0.5917868   0.7092012  )
         9           Ni  tau(   9) = (   0.0000000   0.0000000   0.0000000  )
        10           Ni  tau(  10) = (   0.0000000   0.0000000   0.2026289  )
        11           Mn  tau(  11) = (   0.0000000   0.0000000   0.4052578  )
        12           Ni  tau(  12) = (   0.0000000   0.0000000   0.6078867  )
        13           As  tau(  13) = (  -0.0000000   0.1690819   0.5065723  )
        14           As  tau(  14) = (  -0.0000000   0.1690819   0.9118301  )
        15           As  tau(  15) = (   0.0000000   0.3381639   0.3039434  )
        16           As  tau(  16) = (   0.0000000   0.3381639   0.7092012  )
        17           Ni  tau(  17) = (   0.0000000   0.5072458   0.4052578  )
        18           Ni  tau(  18) = (   0.0000000   0.5072458   0.6078867  )
        19           Ni  tau(  19) = (   0.0000000   0.5072458   0.8105156  )
        20           Ni  tau(  20) = (   0.0000000   0.5072458   1.0131445  )
        21           As  tau(  21) = (  -0.0000000   0.6763278   0.9118301  )
        22           As  tau(  22) = (  -0.0000000   0.6763278   1.3170879  )
        23           As  tau(  23) = (   0.0000000   0.8454097   0.7092012  )
        24           As  tau(  24) = (   0.0000000   0.8454097   1.1144590  )
        25           Ni  tau(  25) = (   0.1464293   0.2536229   0.4052578  )
        26           Ni  tau(  26) = (   0.1464293   0.2536229   0.6078867  )
        27           Ni  tau(  27) = (   0.1464293   0.2536229   0.8105156  )
        28           Ni  tau(  28) = (   0.1464293   0.2536229   1.0131445  )
        29           As  tau(  29) = (   0.1464293   0.4227049   0.9118301  )
        30           As  tau(  30) = (   0.1464293   0.4227049   1.3170879  )
        31           As  tau(  31) = (   0.1464293   0.5917868   0.7092012  )
        32           As  tau(  32) = (   0.1464293   0.5917868   1.1144590  )

     number of k points=     1  Gaussian smearing, width (Ry)=  0.0147
                       cart. coord. in units 2pi/alat
        k(    1) = (   0.0000000   0.0000000   0.0000000), wk =   2.0000000

     Dense  grid:   108791 G-vectors     FFT dimensions: (  96,  60,  80)

     Estimated max dynamical RAM per process >      24.66 MB

     Estimated total dynamical RAM >     690.62 MB

     Check: negative core charge=   -0.000017

     Initial potential from superposition of free atoms

     starting charge     364.9925, renormalised to     365.0000
     Starting wfcs are  224 randomized atomic wfcs

     total cpu time spent up to now is        0.8 secs

     Self-consistent Calculation

     iteration #  1     ecut=    40.42 Ry     beta= 0.70
     Davidson diagonalization with overlap
     ethr =  1.00E-02,  avg # of iterations =  6.0

     total cpu time spent up to now is        1.8 secs

     total energy              =   -5618.90640639 Ry
     estimated scf accuracy    <       7.52685714 Ry

     iteration #  2     ecut=    40.42 Ry     beta= 0.70
     Davidson diagonalization with overlap
     ethr =  2.06E-03,  avg # of iterations =  7.0

     total cpu time spent up to now is        3.1 secs

     total energy              =   -5604.81633033 Ry
     estimated scf accuracy    <     268.72880592 Ry

     iteration #  3     ecut=    40.42 Ry     beta= 0.70
     Davidson diagonalization with overlap
     ethr =  2.06E-03,  avg # of iterations =  5.0

     total cpu time spent up to now is        4.3 secs

     total energy              =   -5610.75336526 Ry
     estimated scf accuracy    <     347.64984579 Ry

     iteration #  4     ecut=    40.42 Ry     beta= 0.70
     Davidson diagonalization with overlap
     ethr =  2.06E-03,  avg # of iterations =  5.0

     total cpu time spent up to now is        5.3 secs

     total energy              =   -5622.23827617 Ry
     estimated scf accuracy    <      50.17447361 Ry

     iteration #  5     ecut=    40.42 Ry     beta= 0.70
     Davidson diagonalization with overlap
     ethr =  2.06E-03,  avg # of iterations =  7.0

     total cpu time spent up to now is        6.2 secs

     total energy              =   -5624.04517680 Ry
     estimated scf accuracy    <       3.92333343 Ry

     iteration #  6     ecut=    40.42 Ry     beta= 0.70
     Davidson diagonalization with overlap
     ethr =  1.07E-03,  avg # of iterations =  1.0

     total cpu time spent up to now is        6.8 secs

     total energy              =   -5624.03857048 Ry
     estimated scf accuracy    <       1.71320165 Ry

     iteration #  7     ecut=    40.42 Ry     beta= 0.70
     Davidson diagonalization with overlap
     ethr =  4.69E-04,  avg # of iterations =  2.0

     total cpu time spent up to now is        7.5 secs

     total energy              =   -5623.83057656 Ry
     estimated scf accuracy    <       8.92276019 Ry

     iteration #  8     ecut=    40.42 Ry     beta= 0.70
     Davidson diagonalization with overlap
     ethr =  4.69E-04,  avg # of iterations =  2.0

     total cpu time spent up to now is        8.2 secs

     total energy              =   -5624.13276696 Ry
     estimated scf accuracy    <       0.62988997 Ry

     iteration #  9     ecut=    40.42 Ry     beta= 0.70
     Davidson diagonalization with overlap
     ethr =  1.73E-04,  avg # of iterations =  2.0

     total cpu time spent up to now is        8.8 secs

     total energy              =   -5624.15190543 Ry
     estimated scf accuracy    <       0.60316657 Ry

     iteration # 10     ecut=    40.42 Ry     beta= 0.70
     Davidson diagonalization with overlap
     ethr =  1.65E-04,  avg # of iterations =  2.0

     total cpu time spent up to now is        9.5 secs

     total energy              =   -5624.17474074 Ry
     estimated scf accuracy    <       0.25656838 Ry

     iteration # 11     ecut=    40.42 Ry     beta= 0.70
     Davidson diagonalization with overlap
     ethr =  7.03E-05,  avg # of iterations =  1.0

     total cpu time spent up to now is       10.1 secs

     total energy              =   -5624.18605815 Ry
     estimated scf accuracy    <       0.02242658 Ry

     iteration # 12     ecut=    40.42 Ry     beta= 0.70
     Davidson diagonalization with overlap
     ethr =  6.14E-06,  avg # of iterations =  8.0

     total cpu time spent up to now is       10.9 secs

     total energy              =   -5624.18641092 Ry
     estimated scf accuracy    <       0.00656511 Ry

     iteration # 13     ecut=    40.42 Ry     beta= 0.70
     Davidson diagonalization with overlap
     ethr =  1.80E-06,  avg # of iterations =  7.0

     total cpu time spent up to now is       12.1 secs

     total energy              =   -5624.18371601 Ry
     estimated scf accuracy    <       0.07703897 Ry

     iteration # 14     ecut=    40.42 Ry     beta= 0.70
     Davidson diagonalization with overlap
     ethr =  1.80E-06,  avg # of iterations =  3.0

     total cpu time spent up to now is       12.9 secs

     total energy              =   -5624.18710331 Ry
     estimated scf accuracy    <       0.00917423 Ry

     iteration # 15     ecut=    40.42 Ry     beta= 0.70
     Davidson diagonalization with overlap
     ethr =  1.80E-06,  avg # of iterations =  3.0

     total cpu time spent up to now is       13.5 secs

     total energy              =   -5624.18743384 Ry
     estimated scf accuracy    <       0.00226487 Ry

     iteration # 16     ecut=    40.42 Ry     beta= 0.70
     Davidson diagonalization with overlap
     ethr =  6.21E-07,  avg # of iterations =  2.0

     total cpu time spent up to now is       14.2 secs

     total energy              =   -5624.18698855 Ry
     estimated scf accuracy    <       0.01173646 Ry

     iteration # 17     ecut=    40.42 Ry     beta= 0.70
     Davidson diagonalization with overlap
     ethr =  6.21E-07,  avg # of iterations =  2.0

     total cpu time spent up to now is       14.9 secs

     total energy              =   -5624.18756133 Ry
     estimated scf accuracy    <       0.00263835 Ry

     iteration # 18     ecut=    40.42 Ry     beta= 0.70
     Davidson diagonalization with overlap
     ethr =  6.21E-07,  avg # of iterations =  1.0

     total cpu time spent up to now is       15.5 secs

     total energy              =   -5624.18773562 Ry
     estimated scf accuracy    <       0.00025421 Ry

     iteration # 19     ecut=    40.42 Ry     beta= 0.70
     Davidson diagonalization with overlap
     ethr =  6.96E-08,  avg # of iterations =  2.0

     total cpu time spent up to now is       16.1 secs

     total energy              =   -5624.18775041 Ry
     estimated scf accuracy    <       0.00004763 Ry

     iteration # 20     ecut=    40.42 Ry     beta= 0.70
     Davidson diagonalization with overlap
     ethr =  1.31E-08,  avg # of iterations =  2.0

     total cpu time spent up to now is       16.8 secs

     total energy              =   -5624.18775303 Ry
     estimated scf accuracy    <       0.00002155 Ry

     iteration # 21     ecut=    40.42 Ry     beta= 0.70
     Davidson diagonalization with overlap
     ethr =  5.90E-09,  avg # of iterations =  2.0

     total cpu time spent up to now is       17.5 secs

     total energy              =   -5624.18774963 Ry
     estimated scf accuracy    <       0.00008513 Ry

     iteration # 22     ecut=    40.42 Ry     beta= 0.70
     Davidson diagonalization with overlap
     ethr =  5.90E-09,  avg # of iterations =  2.0

     total cpu time spent up to now is       18.2 secs

     total energy              =   -5624.18775532 Ry
     estimated scf accuracy    <       0.00000556 Ry

     iteration # 23     ecut=    40.42 Ry     beta= 0.70
     Davidson diagonalization with overlap
     ethr =  1.52E-09,  avg # of iterations =  2.0

     total cpu time spent up to now is       18.8 secs

     total energy              =   -5624.18775565 Ry
     estimated scf accuracy    <       0.00000212 Ry

     iteration # 24     ecut=    40.42 Ry     beta= 0.70
     Davidson diagonalization with overlap
     ethr =  5.81E-10,  avg # of iterations =  2.0

     total cpu time spent up to now is       19.5 secs

     End of self-consistent calculation

          k = 0.0000 0.0000 0.0000 ( 13539 PWs)   bands (ev):

   -90.9509 -90.9509 -90.9509 -90.9279 -90.9270 -90.8705 -90.8705 -90.8704
   -90.8694 -90.8694 -90.8694 -90.6568 -90.6568 -90.6568 -90.6163 -65.5199
   -50.9682 -50.9611 -50.9610 -50.9376 -50.9264 -50.9263 -50.9162 -50.9161
   -50.9134 -50.8933 -50.8850 -50.8849 -50.8766 -50.8705 -50.8704 -50.8688
   -50.8688 -50.8659 -50.8636 -50.8394 -50.8360 -50.8359 -50.8359 -50.8359
   -50.8305 -50.8148 -50.8148 -50.8056 -50.7968 -50.7967 -50.7902 -50.7683
   -50.7683 -50.7119 -50.6859 -50.6859 -50.6166 -50.6165 -50.6079 -50.5847
   -50.5846 -50.5486 -50.5456 -50.5455 -50.4963 -34.7381 -34.2919 -34.2919
    -1.4735  -0.2140  -0.1576   0.8788   0.9569   0.9569   1.3249   1.3805
     1.3840   1.3840   1.4439   1.4439   1.5670   1.5670   1.5958   2.2442
     5.9509   5.9509   5.9754   6.0047   6.0052   6.0052   6.0093   6.0639
     6.0639   6.2485   8.4456   8.4456   8.6869   8.6985   8.6985   8.7034
     8.7034   8.8018   8.8054   8.8225   8.8225   9.0272   9.0273   9.0426
     9.0690   9.0835   9.1271   9.1272   9.1487   9.1487   9.1849   9.1849
     9.2670   9.2676   9.2693   9.2694   9.3270   9.3270   9.3315   9.4459
     9.4813   9.4814   9.5187   9.6473   9.6474   9.6740   9.8179   9.8427
     9.8427  10.0467  10.0468  10.4312  10.4314  10.4521  10.4522  10.5266
    10.5414  10.5415  10.5566  10.5648  10.5649  10.5834  10.5835  10.6544
    10.6545  10.6552  10.6786  10.6969  10.6970  10.7110  10.7123  10.7124
    10.7153  10.7938  10.7939  10.8818  10.8818  10.8844  10.8910  10.9822
    10.9822  11.0942  11.1933  11.1933  11.2026  11.2639  11.2639  11.2684
    11.2686  11.2936  11.4952  11.4953  11.7834  12.0987  12.1610  12.2340
    12.3773  12.3775  12.4421  12.4421  12.8988  12.9457  12.9457  12.9584
    12.9584  13.0523  13.0524  13.3281  13.3281  14.0326  14.0327  14.1780
    14.2117  14.2260  14.2261  14.4861  14.4862  14.5166  14.7308  14.7308
    14.9821  14.9821  15.4926  15.6607  15.6607  16.1559  16.2035  16.4575
    16.4575  17.1704  17.2107  17.2107  17.7525  17.7673  17.7673  17.8455
    17.8455  18.0150  18.0291  18.0292

     the Fermi energy is    12.9169 ev

!    total energy              =   -5624.18775527 Ry
     estimated scf accuracy    <       0.00000059 Ry
     smearing contrib. (-TS)   =      -0.05116161 Ry
     internal energy E=F+TS    =   -5624.13659367 Ry

     The total energy is F=E-TS. E is the sum of the following terms:
     one-electron contribution =   -4207.66013545 Ry
     hartree contribution      =    2281.15260137 Ry
     xc contribution           =    -720.93845634 Ry
     ewald contribution        =   -2976.69060324 Ry

     convergence has been achieved in  24 iterations

     Forces acting on atoms (cartesian axes, Ry/au):

     atom    1 type  1   force =     0.00000000    0.00000000    0.00000000
     atom    2 type  1   force =     0.00149150    0.00086112    0.00355591
     atom    3 type  1   force =    -0.00000000    0.00000000    0.00000000
     atom    4 type  1   force =    -0.00149150   -0.00086112   -0.00355591
     atom    5 type  2   force =    -0.01132836    0.00654043   -0.02494692
     atom    6 type  2   force =    -0.00459991    0.00265576   -0.00319558
     atom    7 type  2   force =    -0.01132836   -0.00654043    0.02494692
     atom    8 type  2   force =    -0.00459991   -0.00265576    0.00319558
     atom    9 type  1   force =     0.00000000    0.00000000    0.00000000
     atom   10 type  1   force =     0.00000000    0.00000000    0.00362074
     atom   11 type  3   force =     0.00000000    0.00000000    0.00000000
     atom   12 type  1   force =     0.00000000    0.00000000   -0.00362074
     atom   13 type  2   force =     0.00000000   -0.01308087   -0.02494692
     atom   14 type  2   force =    -0.00000000   -0.00531152   -0.00319558
     atom   15 type  2   force =     0.00000000    0.00000000    0.00864465
     atom   16 type  2   force =     0.00000000    0.00000000    0.00933061
     atom   17 type  1   force =    -0.00000000    0.00000000    0.00000000
     atom   18 type  1   force =    -0.00000000    0.00172224   -0.00355591
     atom   19 type  1   force =    -0.00000000    0.00000000    0.00000000
     atom   20 type  1   force =     0.00000000   -0.00172224    0.00355591
     atom   21 type  2   force =     0.00000000    0.00000000   -0.00933061
     atom   22 type  2   force =     0.00000000    0.00000000   -0.00864465
     atom   23 type  2   force =    -0.00000000    0.00531152    0.00319558
     atom   24 type  2   force =     0.00000000    0.01308087    0.02494692
     atom   25 type  1   force =     0.00000000   -0.00000000    0.00000000
     atom   26 type  1   force =     0.00149150   -0.00086112   -0.00355591
     atom   27 type  1   force =    -0.00000000   -0.00000000    0.00000000
     atom   28 type  1   force =    -0.00149150    0.00086112    0.00355591
     atom   29 type  2   force =     0.00459991    0.00265576   -0.00319558
     atom   30 type  2   force =     0.01132836    0.00654043   -0.02494692
     atom   31 type  2   force =     0.00459991   -0.00265576    0.00319558
     atom   32 type  2   force =     0.01132836   -0.00654043    0.02494692
     The non-local contrib.  to forces
     atom    1 type  1   force =    -0.00000000    0.00000000    0.00000000
     atom    2 type  1   force =    -0.02865096   -0.01654164   -0.05628588
     atom    3 type  1   force =     0.00000000    0.00000000   -0.00000000
     atom    4 type  1   force =     0.02865096    0.01654164    0.05628588
     atom    5 type  2   force =    -0.00605759    0.00349735    0.01129603
     atom    6 type  2   force =     0.01872230   -0.01080933    0.00297922
     atom    7 type  2   force =    -0.00605759   -0.00349735   -0.01129603
     atom    8 type  2   force =     0.01872230    0.01080933   -0.00297922
     atom    9 type  1   force =     0.00000000   -0.00000000    0.00000000
     atom   10 type  1   force =     0.00000000    0.00000000   -0.07960817
     atom   11 type  3   force =     0.00000000    0.00000000    0.00000000
     atom   12 type  1   force =     0.00000000    0.00000000    0.07960817
     atom   13 type  2   force =     0.00000000   -0.00699470    0.01129603
     atom   14 type  2   force =    -0.00000000    0.02161865    0.00297922
     atom   15 type  2   force =    -0.00000000   -0.00000000   -0.00014784
     atom   16 type  2   force =     0.00000000    0.00000000   -0.00357449
     atom   17 type  1   force =    -0.00000000    0.00000000    0.00000000
     atom   18 type  1   force =     0.00000000   -0.03308328    0.05628588
     atom   19 type  1   force =    -0.00000000    0.00000000    0.00000000
     atom   20 type  1   force =    -0.00000000    0.03308328   -0.05628588
     atom   21 type  2   force =     0.00000000    0.00000000    0.00357449
     atom   22 type  2   force =     0.00000000    0.00000000    0.00014784
     atom   23 type  2   force =    -0.00000000   -0.02161865   -0.00297922
     atom   24 type  2   force =     0.00000000    0.00699470   -0.01129603
     atom   25 type  1   force =    -0.00000000   -0.00000000    0.00000000
     atom   26 type  1   force =    -0.02865096    0.01654164    0.05628588
     atom   27 type  1   force =     0.00000000    0.00000000   -0.00000000
     atom   28 type  1   force =     0.02865096   -0.01654164   -0.05628588
     atom   29 type  2   force =    -0.01872230   -0.01080933    0.00297922
     atom   30 type  2   force =     0.00605759    0.00349735    0.01129603
     atom   31 type  2   force =    -0.01872230    0.01080933   -0.00297922
     atom   32 type  2   force =     0.00605759   -0.00349735   -0.01129603
     The ionic contribution  to forces
     atom    1 type  1   force =    -0.00000000    0.00000000    0.00000000
     atom    2 type  1   force =    -0.00000000    0.00000000    1.43066802
     atom    3 type  1   force =    -0.00000000    0.00000000    0.00000000
     atom    4 type  1   force =    -0.00000000    0.00000000   -1.43066802
     atom    5 type  2   force =    -0.83066253    0.47958323   -0.75796184
     atom    6 type  2   force =    -0.08592064    0.04960630    0.30592766
     atom    7 type  2   force =    -0.83066285   -0.47958321    0.75796182
     atom    8 type  2   force =    -0.08592098   -0.04960630   -0.30592766
     atom    9 type  1   force =     0.00000000   -0.00000000    0.00000000
     atom   10 type  1   force =     0.00000000   -0.00000000    4.63737700
     atom   11 type  3   force =     0.00000000   -0.00000000   -0.00000000
     atom   12 type  1   force =     0.00000000   -0.00000000   -4.63737700
     atom   13 type  2   force =     0.00000018   -0.95916674   -0.75796182
     atom   14 type  2   force =     0.00000017   -0.09921290    0.30592766
     atom   15 type  2   force =    -0.00000017    0.00000010    0.29201175
     atom   16 type  2   force =    -0.00000017    0.00000010   -0.22130983
     atom   17 type  1   force =    -0.00000000    0.00000000   -0.00000000
     atom   18 type  1   force =    -0.00000000    0.00000000   -1.43066802
     atom   19 type  1   force =     0.00000000    0.00000000   -0.00000000
     atom   20 type  1   force =    -0.00000000    0.00000000    1.43066802
     atom   21 type  2   force =     0.00000017   -0.00000010    0.22130983
     atom   22 type  2   force =     0.00000017   -0.00000010   -0.29201175
     atom   23 type  2   force =    -0.00000017    0.09921290   -0.30592766
     atom   24 type  2   force =    -0.00000018    0.95916674    0.75796182
     atom   25 type  1   force =     0.00000000    0.00000000    0.00000000
     atom   26 type  1   force =     0.00000000    0.00000000   -1.43066802
     atom   27 type  1   force =     0.00000000    0.00000000    0.00000000
     atom   28 type  1   force =     0.00000000    0.00000000    1.43066802
     atom   29 type  2   force =     0.08592098    0.04960630    0.30592766
     atom   30 type  2   force =     0.83066285    0.47958321   -0.75796182
     atom   31 type  2   force =     0.08592064   -0.04960630   -0.30592766
     atom   32 type  2   force =     0.83066252   -0.47958323    0.75796184
     The local contribution  to forces
     atom    1 type  1   force =     0.00000000    0.00000002   -0.00000000
     atom    2 type  1   force =     0.03066291    0.01770326   -1.36939808
     atom    3 type  1   force =    -0.00000000    0.00000002    0.00000000
     atom    4 type  1   force =    -0.03066291   -0.01770322    1.36939808
     atom    5 type  2   force =     0.82713189   -0.47754482    0.72489804
     atom    6 type  2   force =     0.06563161   -0.03789242   -0.31108149
     atom    7 type  2   force =     0.82713225    0.47754480   -0.72489802
     atom    8 type  2   force =     0.06563198    0.03789242    0.31108149
     atom    9 type  1   force =    -0.00000000    0.00000000    0.00000000
     atom   10 type  1   force =    -0.00000000    0.00000000   -4.55343417
     atom   11 type  3   force =    -0.00000000    0.00000000   -0.00000000
     atom   12 type  1   force =    -0.00000000    0.00000000    4.55343417
     atom   13 type  2   force =    -0.00000020    0.95508994    0.72489802
     atom   14 type  2   force =    -0.00000019    0.07578518   -0.31108149
     atom   15 type  2   force =     0.00000019   -0.00000011   -0.28328732
     atom   16 type  2   force =     0.00000019   -0.00000011    0.23224949
     atom   17 type  1   force =     0.00000000    0.00000003   -0.00000000
     atom   18 type  1   force =     0.00000000    0.03540651    1.36939808
     atom   19 type  1   force =    -0.00000000    0.00000003    0.00000000
     atom   20 type  1   force =    -0.00000000   -0.03540645   -1.36939808
     atom   21 type  2   force =    -0.00000019    0.00000011   -0.23224949
     atom   22 type  2   force =    -0.00000019    0.00000011    0.28328732
     atom   23 type  2   force =     0.00000019   -0.07578518    0.31108149
     atom   24 type  2   force =     0.00000020   -0.95508994   -0.72489802
     atom   25 type  1   force =     0.00000000    0.00000002    0.00000000
     atom   26 type  1   force =     0.03066291   -0.01770322    1.36939808
     atom   27 type  1   force =    -0.00000000    0.00000002   -0.00000000
     atom   28 type  1   force =    -0.03066291    0.01770326   -1.36939808
     atom   29 type  2   force =    -0.06563198   -0.03789242   -0.31108149
     atom   30 type  2   force =    -0.82713225   -0.47754480    0.72489802
     atom   31 type  2   force =    -0.06563161    0.03789243    0.31108149
     atom   32 type  2   force =    -0.82713189    0.47754482   -0.72489804
     The core correction contribution to forces
     atom    1 type  1   force =     0.00000000    0.00000000   -0.00000000
     atom    2 type  1   force =    -0.00016835   -0.00009791    0.00018878
     atom    3 type  1   force =     0.00000000    0.00000000    0.00000000
     atom    4 type  1   force =     0.00016835    0.00009791   -0.00018878
     atom    5 type  2   force =    -0.00166049    0.00095788   -0.00338964
     atom    6 type  2   force =    -0.00301855    0.00174221   -0.00068520
     atom    7 type  2   force =    -0.00165832   -0.00095826    0.00338987
     atom    8 type  2   force =    -0.00301636   -0.00174227    0.00068506
     atom    9 type  1   force =     0.00000000    0.00000000    0.00000000
     atom   10 type  1   force =    -0.00000045    0.00000012    0.00010490
     atom   11 type  3   force =    -0.00000000    0.00000000   -0.00000000
     atom   12 type  1   force =     0.00000045   -0.00000012   -0.00010490
     atom   13 type  2   force =    -0.00000142   -0.00191589   -0.00338967
     atom   14 type  2   force =    -0.00000116   -0.00348428   -0.00068527
     atom   15 type  2   force =     0.00000102    0.00000011    0.00028759
     atom   16 type  2   force =     0.00000113   -0.00000001    0.00165316
     atom   17 type  1   force =    -0.00000000    0.00000000   -0.00000000
     atom   18 type  1   force =    -0.00000067   -0.00019531   -0.00018853
     atom   19 type  1   force =    -0.00000000    0.00000000    0.00000000
     atom   20 type  1   force =     0.00000067    0.00019531    0.00018853
     atom   21 type  2   force =    -0.00000113    0.00000001   -0.00165316
     atom   22 type  2   force =    -0.00000102   -0.00000011   -0.00028759
     atom   23 type  2   force =     0.00000116    0.00348428    0.00068527
     atom   24 type  2   force =     0.00000142    0.00191589    0.00338967
     atom   25 type  1   force =    -0.00000000    0.00000000    0.00000000
     atom   26 type  1   force =    -0.00016921    0.00009770   -0.00018863
     atom   27 type  1   force =    -0.00000000    0.00000000   -0.00000000
     atom   28 type  1   force =     0.00016921   -0.00009770    0.00018863
     atom   29 type  2   force =     0.00301636    0.00174227   -0.00068506
     atom   30 type  2   force =     0.00165832    0.00095826   -0.00338987
     atom   31 type  2   force =     0.00301855   -0.00174221    0.00068520
     atom   32 type  2   force =     0.00166049   -0.00095788    0.00338964
     The Hubbard contrib.    to forces
     atom    1 type  1   force =     0.00000000    0.00000000    0.00000000
     atom    2 type  1   force =     0.00000000    0.00000000    0.00000000
     atom    3 type  1   force =     0.00000000    0.00000000    0.00000000
     atom    4 type  1   force =     0.00000000    0.00000000    0.00000000
     atom    5 type  2   force =     0.00000000    0.00000000    0.00000000
     atom    6 type  2   force =     0.00000000    0.00000000    0.00000000
     atom    7 type  2   force =     0.00000000    0.00000000    0.00000000
     atom    8 type  2   force =     0.00000000    0.00000000    0.00000000
     atom    9 type  1   force =     0.00000000    0.00000000    0.00000000
     atom   10 type  1   force =     0.00000000    0.00000000    0.00000000
     atom   11 type  3   force =     0.00000000    0.00000000    0.00000000
     atom   12 type  1   force =     0.00000000    0.00000000    0.00000000
     atom   13 type  2   force =     0.00000000    0.00000000    0.00000000
     atom   14 type  2   force =     0.00000000    0.00000000    0.00000000
     atom   15 type  2   force =     0.00000000    0.00000000    0.00000000
     atom   16 type  2   force =     0.00000000    0.00000000    0.00000000
     atom   17 type  1   force =     0.00000000    0.00000000    0.00000000
     atom   18 type  1   force =     0.00000000    0.00000000    0.00000000
     atom   19 type  1   force =     0.00000000    0.00000000    0.00000000
     atom   20 type  1   force =     0.00000000    0.00000000    0.00000000
     atom   21 type  2   force =     0.00000000    0.00000000    0.00000000
     atom   22 type  2   force =     0.00000000    0.00000000    0.00000000
     atom   23 type  2   force =     0.00000000    0.00000000    0.00000000
     atom   24 type  2   force =     0.00000000    0.00000000    0.00000000
     atom   25 type  1   force =     0.00000000    0.00000000    0.00000000
     atom   26 type  1   force =     0.00000000    0.00000000    0.00000000
     atom   27 type  1   force =     0.00000000    0.00000000    0.00000000
     atom   28 type  1   force =     0.00000000    0.00000000    0.00000000
     atom   29 type  2   force =     0.00000000    0.00000000    0.00000000
     atom   30 type  2   force =     0.00000000    0.00000000    0.00000000
     atom   31 type  2   force =     0.00000000    0.00000000    0.00000000
     atom   32 type  2   force =     0.00000000    0.00000000    0.00000000
     The SCF correction term to forces
     atom    1 type  1   force =     0.00000000   -0.00000000   -0.00000000
     atom    2 type  1   force =    -0.00035145   -0.00020288   -0.00161682
     atom    3 type  1   force =     0.00000000   -0.00000000   -0.00000000
     atom    4 type  1   force =     0.00035145    0.00020288    0.00161682
     atom    5 type  2   force =    -0.00008082    0.00004666    0.00021058
     atom    6 type  2   force =    -0.00001570    0.00000907   -0.00033579
     atom    7 type  2   force =    -0.00008081   -0.00004666   -0.00021058
     atom    8 type  2   force =    -0.00001570   -0.00000906    0.00033579
     atom    9 type  1   force =     0.00000000    0.00000000   -0.00000000
     atom   10 type  1   force =     0.00000005   -0.00000004   -0.00081881
     atom   11 type  3   force =    -0.00000000    0.00000000    0.00000000
     atom   12 type  1   force =    -0.00000005    0.00000004    0.00081881
     atom   13 type  2   force =    -0.00000000   -0.00009332    0.00021058
     atom   14 type  2   force =     0.00000000   -0.00001813   -0.00033579
     atom   15 type  2   force =    -0.00000000   -0.00000000   -0.00021953
     atom   16 type  2   force =     0.00000001   -0.00000000    0.00031229
     atom   17 type  1   force =    -0.00000000   -0.00000000    0.00000000
     atom   18 type  1   force =     0.00000002   -0.00040582    0.00161677
     atom   19 type  1   force =    -0.00000000   -0.00000000    0.00000000
     atom   20 type  1   force =    -0.00000002    0.00040582   -0.00161677
     atom   21 type  2   force =    -0.00000001    0.00000000   -0.00031229
     atom   22 type  2   force =     0.00000000    0.00000000    0.00021953
     atom   23 type  2   force =    -0.00000000    0.00001813    0.00033579
     atom   24 type  2   force =     0.00000000    0.00009332   -0.00021058
     atom   25 type  1   force =    -0.00000000   -0.00000000   -0.00000000
     atom   26 type  1   force =    -0.00035145    0.00020291    0.00161679
     atom   27 type  1   force =    -0.00000000   -0.00000000   -0.00000000
     atom   28 type  1   force =     0.00035145   -0.00020291   -0.00161679
     atom   29 type  2   force =     0.00001570    0.00000906   -0.00033579
     atom   30 type  2   force =     0.00008081    0.00004666    0.00021058
     atom   31 type  2   force =     0.00001570   -0.00000907    0.00033579
     atom   32 type  2   force =     0.00008082   -0.00004666   -0.00021058

     Total force =     0.073721     Total SCF correction =     0.004393

     BFGS Geometry Optimization
     Energy error            =      0.0E+00 Ry
     Gradient error          =      2.5E-02 Ry/Bohr

     number of scf cycles    =   1
     number of bfgs steps    =   0

     energy             new  =   -5624.1877552742 Ry

     new trust radius        =       0.0281683828 bohr
     new conv_thr            =       0.0000010000 Ry


ATOMIC_POSITIONS (angstrom)
Ni           -1.8229020250        3.1573589245        0.0000000000
Ni           -1.8221127565        3.1578146089        2.5244147084
Ni           -1.8229020250        3.1573589245        5.0450660000
Ni           -1.8236912935        3.1569032401        7.5657172916
As           -1.8288967552        5.2657259333        6.2931311598
As           -1.8253362112        5.2636702522       11.3497074728
As           -1.8288967188        7.3637097648        3.7970008402
As           -1.8253361748        7.3657654459        8.8305565272
Ni            0.0000000000        0.0000000000        0.0000000000
Ni            0.0000000000        0.0000000000        2.5244490152
Mn            0.0000000000        0.0000000000        5.0450660000
Ni           -0.0000000000       -0.0000000000        7.5656829848
As           -0.0000000182        2.0979838631        6.2931311598
As           -0.0000000182        2.1020952251       11.3497074728
As            0.0000000182        4.2098118888        3.7883740533
As            0.0000000182        4.2098118888        8.8338030485
Ni            0.0000000000        6.3147178490        5.0450660000
Ni            0.0000000000        6.3156292177        7.5657172916
Ni            0.0000000000        6.3147178490       10.0901320000
Ni            0.0000000000        6.3138064803       12.6145467084
As           -0.0000000182        8.4196238092       11.3464609515
As           -0.0000000182        8.4196238092       16.3918899467
As            0.0000000182       10.5273404730        8.8305565272
As            0.0000000182       10.5314518350       13.8871328402
Ni            1.8229020250        3.1573589245        5.0450660000
Ni            1.8236912935        3.1569032401        7.5657172916
Ni            1.8229020250        3.1573589245       10.0901320000
Ni            1.8221127565        3.1578146089       12.6145467084
As            1.8253361748        5.2636702522       11.3497074728
As            1.8288967188        5.2657259333       16.3832631598
As            1.8253362112        7.3657654459        8.8305565272
As            1.8288967552        7.3637097648       13.8871328402



     Writing config-only to output data dir ./tutorial.save/
     NEW-OLD atomic charge density approx. for the potential

     Check: negative core charge=   -0.000017

     total cpu time spent up to now is       20.0 secs

     Self-consistent Calculation

     iteration #  1     ecut=    40.42 Ry     beta= 0.70
     Davidson diagonalization with overlap
     ethr =  1.00E-06,  avg # of iterations =  5.0

     total cpu time spent up to now is       21.2 secs

     total energy              =   -5624.18609260 Ry
     estimated scf accuracy    <       0.01101108 Ry

     iteration #  2     ecut=    40.42 Ry     beta= 0.70
     Davidson diagonalization with overlap
     ethr =  3.02E-06,  avg # of iterations =  6.0

     total cpu time spent up to now is       22.3 secs

     total energy              =   -5624.08857870 Ry
     estimated scf accuracy    <       3.22863066 Ry

     iteration #  3     ecut=    40.42 Ry     beta= 0.70
     Davidson diagonalization with overlap
     ethr =  3.02E-06,  avg # of iterations =  7.0

     total cpu time spent up to now is       23.7 secs

     total energy              =   -5624.18015639 Ry
     estimated scf accuracy    <       0.25692898 Ry

     iteration #  4     ecut=    40.42 Ry     beta= 0.70
     Davidson diagonalization with overlap
     ethr =  3.02E-06,  avg # of iterations =  7.0

     total cpu time spent up to now is       24.8 secs

     total energy              =   -5624.19183165 Ry
     estimated scf accuracy    <       0.02611951 Ry

     iteration #  5     ecut=    40.42 Ry     beta= 0.70
     Davidson diagonalization with overlap
     ethr =  3.02E-06,  avg # of iterations =  2.0

     total cpu time spent up to now is       25.4 secs

     total energy              =   -5624.19279580 Ry
     estimated scf accuracy    <       0.00265184 Ry

     iteration #  6     ecut=    40.42 Ry     beta= 0.70
     Davidson diagonalization with overlap
     ethr =  7.27E-07,  avg # of iterations =  1.0

     total cpu time spent up to now is       26.0 secs

     total energy              =   -5624.19294321 Ry
     estimated scf accuracy    <       0.00094395 Ry

     iteration #  7     ecut=    40.42 Ry     beta= 0.70
     Davidson diagonalization with overlap
     ethr =  2.59E-07,  avg # of iterations =  1.0

     total cpu time spent up to now is       26.6 secs

     total energy              =   -5624.19296565 Ry
     estimated scf accuracy    <       0.00042142 Ry

     iteration #  8     ecut=    40.42 Ry     beta= 0.70
     Davidson diagonalization with overlap
     ethr =  1.15E-07,  avg # of iterations =  1.0

     total cpu time spent up to now is       27.2 secs

     total energy              =   -5624.19296732 Ry
     estimated scf accuracy    <       0.00017061 Ry

     iteration #  9     ecut=    40.42 Ry     beta= 0.70
     Davidson diagonalization with overlap
     ethr =  4.67E-08,  avg # of iterations =  2.0

     total cpu time spent up to now is       27.8 secs

     total energy              =   -5624.19297478 Ry
     estimated scf accuracy    <       0.00008402 Ry

     iteration # 10     ecut=    40.42 Ry     beta= 0.70
     Davidson diagonalization with overlap
     ethr =  2.30E-08,  avg # of iterations =  1.0

     total cpu time spent up to now is       28.4 secs

     total energy              =   -5624.19297594 Ry
     estimated scf accuracy    <       0.00005812 Ry

     iteration # 11     ecut=    40.42 Ry     beta= 0.70
     Davidson diagonalization with overlap
     ethr =  1.59E-08,  avg # of iterations =  1.0

     total cpu time spent up to now is       29.0 secs

     total energy              =   -5624.19297610 Ry
     estimated scf accuracy    <       0.00002684 Ry

     iteration # 12     ecut=    40.42 Ry     beta= 0.70
     Davidson diagonalization with overlap
     ethr =  7.35E-09,  avg # of iterations =  2.0

     total cpu time spent up to now is       29.7 secs

     total energy              =   -5624.19296370 Ry
     estimated scf accuracy    <       0.00036945 Ry

     iteration # 13     ecut=    40.42 Ry     beta= 0.70
     Davidson diagonalization with overlap
     ethr =  7.35E-09,  avg # of iterations =  2.0

     total cpu time spent up to now is       30.3 secs

     total energy              =   -5624.19297641 Ry
     estimated scf accuracy    <       0.00003307 Ry

     iteration # 14     ecut=    40.42 Ry     beta= 0.70
     Davidson diagonalization with overlap
     ethr =  7.35E-09,  avg # of iterations =  3.0

     total cpu time spent up to now is       31.1 secs

     total energy              =   -5624.19296737 Ry
     estimated scf accuracy    <       0.00022341 Ry

     iteration # 15     ecut=    40.42 Ry     beta= 0.70
     Davidson diagonalization with overlap
     ethr =  7.35E-09,  avg # of iterations =  3.0

     total cpu time spent up to now is       31.8 secs

     total energy              =   -5624.19297810 Ry
     estimated scf accuracy    <       0.00001160 Ry

     iteration # 16     ecut=    40.42 Ry     beta= 0.70
     Davidson diagonalization with overlap
     ethr =  3.18E-09,  avg # of iterations =  2.0

     total cpu time spent up to now is       32.4 secs

     total energy              =   -5624.19297846 Ry
     estimated scf accuracy    <       0.00001263 Ry

     iteration # 17     ecut=    40.42 Ry     beta= 0.70
     Davidson diagonalization with overlap
     ethr =  3.18E-09,  avg # of iterations =  1.0

     total cpu time spent up to now is       33.0 secs

     End of self-consistent calculation

          k = 0.0000 0.0000 0.0000 ( 13539 PWs)   bands (ev):

   -90.9676 -90.9676 -90.9676 -90.9168 -90.9159 -90.8368 -90.8368 -90.8368
   -90.8358 -90.8358 -90.8358 -90.6935 -90.6934 -90.6934 -90.6355 -65.5286
   -50.9781 -50.9705 -50.9705 -50.9519 -50.9278 -50.9277 -50.9260 -50.9131
   -50.9130 -50.8859 -50.8859 -50.8793 -50.8779 -50.8778 -50.8410 -50.8405
   -50.8392 -50.8392 -50.8338 -50.8230 -50.8108 -50.8097 -50.8096 -50.8015
   -50.8014 -50.7829 -50.7829 -50.7780 -50.7731 -50.7655 -50.7654 -50.7463
   -50.7462 -50.7341 -50.7065 -50.7064 -50.6373 -50.6364 -50.6363 -50.6166
   -50.6165 -50.5869 -50.5865 -50.5864 -50.5154 -34.7381 -34.3078 -34.3078
    -1.4713  -0.1867  -0.1851   0.8921   0.9534   0.9534   1.3404   1.3740
     1.3894   1.3894   1.4329   1.4329   1.5719   1.5719   1.5826   2.2447
     5.9512   5.9512   5.9763   6.0020   6.0166   6.0167   6.0222   6.0508
     6.0508   6.2457   8.4509   8.4509   8.6968   8.6972   8.6973   8.7092
     8.7092   8.7921   8.8015   8.8286   8.8287   9.0360   9.0361   9.0632
     9.0766   9.0883   9.1160   9.1161   9.1402   9.1402   9.2139   9.2139
     9.2681   9.2713   9.2714   9.2916   9.3026   9.3026   9.3226   9.4379
     9.5052   9.5053   9.5288   9.6259   9.6260   9.6460   9.8167   9.8447
     9.8447  10.0516  10.0518  10.4477  10.4478  10.4541  10.4543  10.5440
    10.5441  10.5463  10.5579  10.5584  10.5585  10.5906  10.5907  10.6477
    10.6641  10.6642  10.6797  10.6973  10.6975  10.7221  10.7222  10.7269
    10.7490  10.7853  10.7854  10.8640  10.9099  10.9106  10.9106  10.9625
    10.9626  11.0850  11.1952  11.1953  11.2078  11.2647  11.2647  11.2702
    11.2704  11.2922  11.4760  11.4761  11.7465  12.1026  12.1642  12.2311
    12.3552  12.3553  12.4308  12.4309  12.9019  12.9219  12.9447  12.9448
    12.9604  13.0509  13.0509  13.3429  13.3429  14.0348  14.0349  14.1720
    14.2197  14.2284  14.2285  14.4884  14.4885  14.5177  14.7304  14.7304
    14.9837  14.9837  15.4925  15.6684  15.6684  16.1565  16.1951  16.4764
    16.4764  17.1867  17.2022  17.2022  17.7616  17.7616  17.7642  17.8390
    17.8390  18.0259  18.0259  18.0304

     the Fermi energy is    12.9114 ev

!    total energy              =   -5624.19297903 Ry
     estimated scf accuracy    <       0.00000076 Ry
     smearing contrib. (-TS)   =      -0.05089616 Ry
     internal energy E=F+TS    =   -5624.14208287 Ry

     The total energy is F=E-TS. E is the sum of the following terms:
     one-electron contribution =   -4207.25418026 Ry
     hartree contribution      =    2280.97818435 Ry
     xc contribution           =    -720.94372718 Ry
     ewald contribution        =   -2976.92235978 Ry

     convergence has been achieved in  17 iterations

     Forces acting on atoms (cartesian axes, Ry/au):

     atom    1 type  1   force =     0.00000000    0.00000000    0.00000000
     atom    2 type  1   force =     0.00070757    0.00040852    0.00433307
     atom    3 type  1   force =    -0.00000000   -0.00000000    0.00000000
     atom    4 type  1   force =    -0.00070757   -0.00040852   -0.00433307
     atom    5 type  2   force =    -0.00894813    0.00516621   -0.02384274
     atom    6 type  2   force =    -0.00322992    0.00186480   -0.00484211
     atom    7 type  2   force =    -0.00894813   -0.00516621    0.02384274
     atom    8 type  2   force =    -0.00322992   -0.00186480    0.00484211
     atom    9 type  1   force =     0.00000000    0.00000000    0.00000000
     atom   10 type  1   force =     0.00000000    0.00000000    0.00280732
     atom   11 type  3   force =     0.00000000    0.00000000    0.00000000
     atom   12 type  1   force =     0.00000000    0.00000000   -0.00280732
     atom   13 type  2   force =     0.00000000   -0.01033242   -0.02384274
     atom   14 type  2   force =     0.00000000   -0.00372960   -0.00484211
     atom   15 type  2   force =     0.00000000    0.00000000    0.00757140
     atom   16 type  2   force =     0.00000000    0.00000000    0.00884959
     atom   17 type  1   force =    -0.00000000    0.00000000    0.00000000
     atom   18 type  1   force =     0.00000000    0.00081703   -0.00433307
     atom   19 type  1   force =     0.00000000    0.00000000    0.00000000
     atom   20 type  1   force =     0.00000000   -0.00081703    0.00433307
     atom   21 type  2   force =     0.00000000    0.00000000   -0.00884959
     atom   22 type  2   force =     0.00000000    0.00000000   -0.00757140
     atom   23 type  2   force =     0.00000000    0.00372960    0.00484211
     atom   24 type  2   force =     0.00000000    0.01033242    0.02384274
     atom   25 type  1   force =     0.00000000   -0.00000000    0.00000000
     atom   26 type  1   force =     0.00070757   -0.00040852   -0.00433307
     atom   27 type  1   force =    -0.00000000   -0.00000000    0.00000000
     atom   28 type  1   force =    -0.00070757    0.00040852    0.00433307
     atom   29 type  2   force =     0.00322992    0.00186480   -0.00484211
     atom   30 type  2   force =     0.00894813    0.00516621   -0.02384274
     atom   31 type  2   force =     0.00322992   -0.00186480    0.00484211
     atom   32 type  2   force =     0.00894813   -0.00516621    0.02384274
     The non-local contrib.  to forces
     atom    1 type  1   force =    -0.00000000    0.00000000    0.00000000
     atom    2 type  1   force =    -0.02748245   -0.01586700   -0.05754872
     atom    3 type  1   force =     0.00000000    0.00000000    0.00000000
     atom    4 type  1   force =     0.02748245    0.01586700    0.05754872
     atom    5 type  2   force =    -0.00577986    0.00333700    0.01165668
     atom    6 type  2   force =     0.01861699   -0.01074852    0.00288390
     atom    7 type  2   force =    -0.00577986   -0.00333700   -0.01165668
     atom    8 type  2   force =     0.01861699    0.01074852   -0.00288390
     atom    9 type  1   force =    -0.00000000   -0.00000000    0.00000000
     atom   10 type  1   force =     0.00000000    0.00000000   -0.08513546
     atom   11 type  3   force =     0.00000000   -0.00000000    0.00000000
     atom   12 type  1   force =     0.00000000    0.00000000    0.08513546
     atom   13 type  2   force =     0.00000000   -0.00667400    0.01165668
     atom   14 type  2   force =    -0.00000000    0.02149705    0.00288390
     atom   15 type  2   force =     0.00000000    0.00000000   -0.00071458
     atom   16 type  2   force =     0.00000000    0.00000000   -0.00304557
     atom   17 type  1   force =     0.00000000    0.00000000    0.00000000
     atom   18 type  1   force =     0.00000000   -0.03173400    0.05754872
     atom   19 type  1   force =    -0.00000000   -0.00000000    0.00000000
     atom   20 type  1   force =     0.00000000    0.03173400   -0.05754872
     atom   21 type  2   force =     0.00000000    0.00000000    0.00304557
     atom   22 type  2   force =     0.00000000    0.00000000    0.00071458
     atom   23 type  2   force =     0.00000000   -0.02149705   -0.00288390
     atom   24 type  2   force =     0.00000000    0.00667400   -0.01165668
     atom   25 type  1   force =     0.00000000    0.00000000    0.00000000
     atom   26 type  1   force =    -0.02748245    0.01586700    0.05754872
     atom   27 type  1   force =    -0.00000000    0.00000000    0.00000000
     atom   28 type  1   force =     0.02748245   -0.01586700   -0.05754872
     atom   29 type  2   force =    -0.01861699   -0.01074852    0.00288390
     atom   30 type  2   force =     0.00577986    0.00333700    0.01165668
     atom   31 type  2   force =    -0.01861699    0.01074852   -0.00288390
     atom   32 type  2   force =     0.00577986   -0.00333700   -0.01165668
     The ionic contribution  to forces
     atom    1 type  1   force =    -0.00000000    0.00000000    0.00000000
     atom    2 type  1   force =    -0.10546747   -0.06089167    1.19101470
     atom    3 type  1   force =    -0.00000000    0.00000000    0.00000000
     atom    4 type  1   force =     0.10546747    0.06089167   -1.19101470
     atom    5 type  2   force =    -0.75238562    0.43439004   -0.62309569
     atom    6 type  2   force =    -0.05978148    0.03451486    0.29777260
     atom    7 type  2   force =    -0.75238595   -0.43439002    0.62309566
     atom    8 type  2   force =    -0.05978183   -0.03451486   -0.29777260
     atom    9 type  1   force =     0.00000000   -0.00000000    0.00000000
     atom   10 type  1   force =    -0.00000000   -0.00000000    4.31920874
     atom   11 type  3   force =     0.00000000   -0.00000000   -0.00000000
     atom   12 type  1   force =     0.00000000   -0.00000000   -4.31920874
     atom   13 type  2   force =     0.00000018   -0.86878035   -0.62309566
     atom   14 type  2   force =     0.00000017   -0.06903001    0.29777260
     atom   15 type  2   force =    -0.00000017    0.00000010    0.22928036
     atom   16 type  2   force =    -0.00000017    0.00000010   -0.26088850
     atom   17 type  1   force =    -0.00000000    0.00000000   -0.00000000
     atom   18 type  1   force =     0.00000000   -0.12178334   -1.19101470
     atom   19 type  1   force =     0.00000000    0.00000000   -0.00000000
     atom   20 type  1   force =    -0.00000000    0.12178334    1.19101470
     atom   21 type  2   force =     0.00000017   -0.00000010    0.26088850
     atom   22 type  2   force =     0.00000017   -0.00000010   -0.22928036
     atom   23 type  2   force =    -0.00000017    0.06903001   -0.29777260
     atom   24 type  2   force =    -0.00000018    0.86878035    0.62309566
     atom   25 type  1   force =     0.00000000    0.00000000    0.00000000
     atom   26 type  1   force =    -0.10546747    0.06089167   -1.19101470
     atom   27 type  1   force =     0.00000000    0.00000000    0.00000000
     atom   28 type  1   force =     0.10546747   -0.06089167    1.19101470
     atom   29 type  2   force =     0.05978183    0.03451486    0.29777260
     atom   30 type  2   force =     0.75238595    0.43439002   -0.62309566
     atom   31 type  2   force =     0.05978148   -0.03451486   -0.29777260
     atom   32 type  2   force =     0.75238562   -0.43439004    0.62309569
     The local contribution  to forces
     atom    1 type  1   force =     0.00000000    0.00000002   -0.00000000
     atom    2 type  1   force =     0.13424170    0.07750450   -1.13056487
     atom    3 type  1   force =    -0.00000000    0.00000002    0.00000000
     atom    4 type  1   force =    -0.13424170   -0.07750446    1.13056487
     atom    5 type  2   force =     0.75138150   -0.43381031    0.59200920
     atom    6 type  2   force =     0.04097625   -0.02365765   -0.30480778
     atom    7 type  2   force =     0.75138187    0.43381030   -0.59200918
     atom    8 type  2   force =     0.04097662    0.02365765    0.30480778
     atom    9 type  1   force =    -0.00000000    0.00000000    0.00000000
     atom   10 type  1   force =    -0.00000000    0.00000000   -4.23275809
     atom   11 type  3   force =    -0.00000000    0.00000000   -0.00000000
     atom   12 type  1   force =     0.00000000    0.00000000    4.23275809
     atom   13 type  2   force =    -0.00000019    0.86762094    0.59200918
     atom   14 type  2   force =    -0.00000019    0.04731562   -0.30480778
     atom   15 type  2   force =     0.00000019   -0.00000011   -0.22168524
     atom   16 type  2   force =     0.00000019   -0.00000011    0.27102851
     atom   17 type  1   force =     0.00000000    0.00000003   -0.00000000
     atom   18 type  1   force =    -0.00000000    0.15500899    1.13056487
     atom   19 type  1   force =    -0.00000000    0.00000003    0.00000000
     atom   20 type  1   force =    -0.00000000   -0.15500893   -1.13056487
     atom   21 type  2   force =    -0.00000019    0.00000011   -0.27102851
     atom   22 type  2   force =    -0.00000019    0.00000011    0.22168524
     atom   23 type  2   force =     0.00000019   -0.04731562    0.30480778
     atom   24 type  2   force =     0.00000019   -0.86762094   -0.59200918
     atom   25 type  1   force =     0.00000000    0.00000002    0.00000000
     atom   26 type  1   force =     0.13424170   -0.07750446    1.13056487
     atom   27 type  1   force =    -0.00000000    0.00000002   -0.00000000
     atom   28 type  1   force =    -0.13424170    0.07750450   -1.13056487
     atom   29 type  2   force =    -0.04097662   -0.02365765   -0.30480778
     atom   30 type  2   force =    -0.75138187   -0.43381030    0.59200918
     atom   31 type  2   force =    -0.04097625    0.02365765    0.30480778
     atom   32 type  2   force =    -0.75138150    0.43381031   -0.59200920
     The core correction contribution to forces
     atom    1 type  1   force =     0.00000000    0.00000000   -0.00000000
     atom    2 type  1   force =    -0.00006551   -0.00003838    0.00026059
     atom    3 type  1   force =     0.00000000    0.00000000    0.00000000
     atom    4 type  1   force =     0.00006551    0.00003838   -0.00026059
     atom    5 type  2   force =    -0.00217887    0.00125734   -0.00427615
     atom    6 type  2   force =    -0.00312914    0.00180608   -0.00097090
     atom    7 type  2   force =    -0.00217688   -0.00125750    0.00427634
     atom    8 type  2   force =    -0.00312696   -0.00180601    0.00097075
     atom    9 type  1   force =     0.00000000    0.00000000    0.00000000
     atom   10 type  1   force =     0.00000008    0.00000085    0.00032249
     atom   11 type  3   force =     0.00000000    0.00000000   -0.00000000
     atom   12 type  1   force =    -0.00000008   -0.00000085   -0.00032249
     atom   13 type  2   force =    -0.00000111   -0.00251439   -0.00427619
     atom   14 type  2   force =    -0.00000103   -0.00361192   -0.00097097
     atom   15 type  2   force =     0.00000100    0.00000010    0.00059615
     atom   16 type  2   force =     0.00000105   -0.00000001    0.00205869
     atom   17 type  1   force =    -0.00000000    0.00000000   -0.00000000
     atom   18 type  1   force =    -0.00000150   -0.00007811   -0.00025960
     atom   19 type  1   force =    -0.00000000    0.00000000    0.00000000
     atom   20 type  1   force =     0.00000150    0.00007811    0.00025960
     atom   21 type  2   force =    -0.00000105    0.00000001   -0.00205869
     atom   22 type  2   force =    -0.00000100   -0.00000010   -0.00059615
     atom   23 type  2   force =     0.00000103    0.00361192    0.00097097
     atom   24 type  2   force =     0.00000111    0.00251439    0.00427619
     atom   25 type  1   force =    -0.00000000    0.00000000    0.00000000
     atom   26 type  1   force =    -0.00006691    0.00003756   -0.00025997
     atom   27 type  1   force =    -0.00000000    0.00000000   -0.00000000
     atom   28 type  1   force =     0.00006691   -0.00003756    0.00025997
     atom   29 type  2   force =     0.00312696    0.00180601   -0.00097075
     atom   30 type  2   force =     0.00217688    0.00125750   -0.00427634
     atom   31 type  2   force =     0.00312914   -0.00180608    0.00097090
     atom   32 type  2   force =     0.00217887   -0.00125734    0.00427615
     The Hubbard contrib.    to forces
     atom    1 type  1   force =     0.00000000    0.00000000    0.00000000
     atom    2 type  1   force =     0.00000000    0.00000000    0.00000000
     atom    3 type  1   force =     0.00000000    0.00000000    0.00000000
     atom    4 type  1   force =     0.00000000    0.00000000    0.00000000
     atom    5 type  2   force =     0.00000000    0.00000000    0.00000000
     atom    6 type  2   force =     0.00000000    0.00000000    0.00000000
     atom    7 type  2   force =     0.00000000    0.00000000    0.00000000
     atom    8 type  2   force =     0.00000000    0.00000000    0.00000000
     atom    9 type  1   force =     0.00000000    0.00000000    0.00000000
     atom   10 type  1   force =     0.00000000    0.00000000    0.00000000
     atom   11 type  3   force =     0.00000000    0.00000000    0.00000000
     atom   12 type  1   force =     0.00000000    0.00000000    0.00000000
     atom   13 type  2   force =     0.00000000    0.00000000    0.00000000
     atom   14 type  2   force =     0.00000000    0.00000000    0.00000000
     atom   15 type  2   force =     0.00000000    0.00000000    0.00000000
     atom   16 type  2   force =     0.00000000    0.00000000    0.00000000
     atom   17 type  1   force =     0.00000000    0.00000000    0.00000000
     atom   18 type  1   force =     0.00000000    0.00000000    0.00000000
     atom   19 type  1   force =     0.00000000    0.00000000    0.00000000
     atom   20 type  1   force =     0.00000000    0.00000000    0.00000000
     atom   21 type  2   force =     0.00000000    0.00000000    0.00000000
     atom   22 type  2   force =     0.00000000    0.00000000    0.00000000
     atom   23 type  2   force =     0.00000000    0.00000000    0.00000000
     atom   24 type  2   force =     0.00000000    0.00000000    0.00000000
     atom   25 type  1   force =     0.00000000    0.00000000    0.00000000
     atom   26 type  1   force =     0.00000000    0.00000000    0.00000000
     atom   27 type  1   force =     0.00000000    0.00000000    0.00000000
     atom   28 type  1   force =     0.00000000    0.00000000    0.00000000
     atom   29 type  2   force =     0.00000000    0.00000000    0.00000000
     atom   30 type  2   force =     0.00000000    0.00000000    0.00000000
     atom   31 type  2   force =     0.00000000    0.00000000    0.00000000
     atom   32 type  2   force =     0.00000000    0.00000000    0.00000000
     The SCF correction term to forces
     atom    1 type  1   force =    -0.00000000   -0.00000000    0.00000000
     atom    2 type  1   force =    -0.00051756   -0.00029920    0.00117205
     atom    3 type  1   force =     0.00000000   -0.00000000    0.00000000
     atom    4 type  1   force =     0.00051756    0.00029920   -0.00117205
     atom    5 type  2   force =     0.00001358   -0.00000783   -0.00013671
     atom    6 type  2   force =     0.00008635   -0.00004988    0.00028003
     atom    7 type  2   force =     0.00001358    0.00000785    0.00013670
     atom    8 type  2   force =     0.00008636    0.00004985   -0.00028003
     atom    9 type  1   force =    -0.00000000   -0.00000000    0.00000000
     atom   10 type  1   force =    -0.00000014    0.00000013    0.00116965
     atom   11 type  3   force =     0.00000000    0.00000000   -0.00000000
     atom   12 type  1   force =     0.00000014   -0.00000013   -0.00116965
     atom   13 type  2   force =     0.00000002    0.00001569   -0.00013671
     atom   14 type  2   force =    -0.00000002    0.00009972    0.00028003
     atom   15 type  2   force =     0.00000002   -0.00000000    0.00009471
     atom   16 type  2   force =    -0.00000002    0.00000000   -0.00030353
     atom   17 type  1   force =    -0.00000000   -0.00000000    0.00000000
     atom   18 type  1   force =    -0.00000034   -0.00059770   -0.00117167
     atom   19 type  1   force =     0.00000000   -0.00000000   -0.00000000
     atom   20 type  1   force =     0.00000034    0.00059770    0.00117167
     atom   21 type  2   force =     0.00000002   -0.00000000    0.00030353
     atom   22 type  2   force =    -0.00000002    0.00000000   -0.00009471
     atom   23 type  2   force =     0.00000002   -0.00009972   -0.00028003
     atom   24 type  2   force =    -0.00000002   -0.00001569    0.00013671
     atom   25 type  1   force =     0.00000000   -0.00000000    0.00000000
     atom   26 type  1   force =    -0.00051744    0.00029872   -0.00117200
     atom   27 type  1   force =     0.00000000   -0.00000000    0.00000000
     atom   28 type  1   force =     0.00051744   -0.00029872    0.00117200
     atom   29 type  2   force =    -0.00008636   -0.00004985    0.00028003
     atom   30 type  2   force =    -0.00001358   -0.00000785   -0.00013670
     atom   31 type  2   force =    -0.00008635    0.00004988   -0.00028003
     atom   32 type  2   force =    -0.00001358    0.00000783    0.00013671

     Total force =     0.068405     Total SCF correction =     0.003737
     Energy error            =      5.2E-03 Ry
     Gradient error          =      2.4E-02 Ry/Bohr

     number of scf cycles    =   2
     number of bfgs steps    =   1

     energy             old  =   -5624.1877552742 Ry
     energy             new  =   -5624.1929790311 Ry

     CASE: energy            _new < energy            _old


     WARNING: bfgs curvature condition failed, Theta= 0.868
     new trust radius        =       0.0309852211 bohr
     new conv_thr            =       0.0000002384 Ry


ATOMIC_POSITIONS (angstrom)
Ni           -1.8229020250        3.1573589245        0.0000000000
Ni           -1.8215267880        3.1581529179        2.5269312252
Ni           -1.8229020250        3.1573589245        5.0450660000
Ni           -1.8242772620        3.1565649311        7.5632007748
As           -1.8348593702        5.2691684507        6.2782500585
As           -1.8275866421        5.2649695391       11.3470448381
As           -1.8348593338        7.3602672474        3.8118819415
As           -1.8275866057        7.3644661590        8.8332191619
Ni           -0.0000000000        0.0000000000        0.0000000000
Ni            0.0000000000        0.0000000000        2.5263324926
Mn            0.0000000000        0.0000000000        5.0450660000
Ni           -0.0000000000       -0.0000000000        7.5637995074
As           -0.0000000182        2.0910988283        6.2782500585
As           -0.0000000182        2.0994966513       11.3470448381
As            0.0000000182        4.2098118888        3.7932384938
As            0.0000000182        4.2098118888        8.8393400744
Ni            0.0000000000        6.3147178490        5.0450660000
Ni            0.0000000000        6.3163058359        7.5632007748
Ni            0.0000000000        6.3147178490       10.0901320000
Ni            0.0000000000        6.3131298621       12.6170632252
As           -0.0000000182        8.4196238092       11.3409239256
As           -0.0000000182        8.4196238092       16.3870255062
As            0.0000000182       10.5299390468        8.8332191619
As            0.0000000182       10.5383368698       13.9020139415
Ni            1.8229020250        3.1573589245        5.0450660000
Ni            1.8242772620        3.1565649311        7.5632007748
Ni            1.8229020250        3.1573589245       10.0901320000
Ni            1.8215267880        3.1581529179       12.6170632252
As            1.8275866057        5.2649695391       11.3470448381
As            1.8348593338        5.2691684507       16.3683820585
As            1.8275866421        7.3644661590        8.8332191619
As            1.8348593702        7.3602672474       13.9020139415



     Writing config-only to output data dir ./tutorial.save/
     NEW-OLD atomic charge density approx. for the potential

     Check: negative core charge=   -0.000017

     total cpu time spent up to now is       33.6 secs

     Self-consistent Calculation

     iteration #  1     ecut=    40.42 Ry     beta= 0.70
     Davidson diagonalization with overlap
     ethr =  1.00E-06,  avg # of iterations =  6.0

     total cpu time spent up to now is       35.0 secs

     total energy              =   -5624.18875323 Ry
     estimated scf accuracy    <       0.01556836 Ry

     iteration #  2     ecut=    40.42 Ry     beta= 0.70
     Davidson diagonalization with overlap
     ethr =  4.27E-06,  avg # of iterations =  8.0

     total cpu time spent up to now is       36.2 secs

     total energy              =   -5624.05217826 Ry
     estimated scf accuracy    <       4.42108228 Ry

     iteration #  3     ecut=    40.42 Ry     beta= 0.70
     Davidson diagonalization with overlap
     ethr =  4.27E-06,  avg # of iterations =  9.0

     total cpu time spent up to now is       37.8 secs

     total energy              =   -5624.18244334 Ry
     estimated scf accuracy    <       0.31761820 Ry

     iteration #  4     ecut=    40.42 Ry     beta= 0.70
     Davidson diagonalization with overlap
     ethr =  4.27E-06,  avg # of iterations =  4.0

     total cpu time spent up to now is       38.7 secs

     total energy              =   -5624.19719671 Ry
     estimated scf accuracy    <       0.02644691 Ry

     iteration #  5     ecut=    40.42 Ry     beta= 0.70
     Davidson diagonalization with overlap
     ethr =  4.27E-06,  avg # of iterations =  2.0

     total cpu time spent up to now is       39.4 secs

     total energy              =   -5624.19816144 Ry
     estimated scf accuracy    <       0.00184505 Ry

     iteration #  6     ecut=    40.42 Ry     beta= 0.70
     Davidson diagonalization with overlap
     ethr =  5.05E-07,  avg # of iterations =  3.0

     total cpu time spent up to now is       40.0 secs

     total energy              =   -5624.19820759 Ry
     estimated scf accuracy    <       0.00243126 Ry

     iteration #  7     ecut=    40.42 Ry     beta= 0.70
     Davidson diagonalization with overlap
     ethr =  5.05E-07,  avg # of iterations =  1.0

     total cpu time spent up to now is       40.6 secs

     total energy              =   -5624.19828309 Ry
     estimated scf accuracy    <       0.00050976 Ry

     iteration #  8     ecut=    40.42 Ry     beta= 0.70
     Davidson diagonalization with overlap
     ethr =  1.40E-07,  avg # of iterations =  2.0

     total cpu time spent up to now is       41.3 secs

     total energy              =   -5624.19828366 Ry
     estimated scf accuracy    <       0.00033260 Ry

     iteration #  9     ecut=    40.42 Ry     beta= 0.70
     Davidson diagonalization with overlap
     ethr =  9.11E-08,  avg # of iterations =  1.0

     total cpu time spent up to now is       41.8 secs

     total energy              =   -5624.19830268 Ry
     estimated scf accuracy    <       0.00008002 Ry

     iteration # 10     ecut=    40.42 Ry     beta= 0.70
     Davidson diagonalization with overlap
     ethr =  2.19E-08,  avg # of iterations =  2.0

     total cpu time spent up to now is       42.5 secs

     total energy              =   -5624.19830467 Ry
     estimated scf accuracy    <       0.00003288 Ry

     iteration # 11     ecut=    40.42 Ry     beta= 0.70
     Davidson diagonalization with overlap
     ethr =  9.01E-09,  avg # of iterations =  1.0

     total cpu time spent up to now is       43.1 secs

     total energy              =   -5624.19830235 Ry
     estimated scf accuracy    <       0.00002774 Ry

     iteration # 12     ecut=    40.42 Ry     beta= 0.70
     Davidson diagonalization with overlap
     ethr =  7.60E-09,  avg # of iterations =  2.0

     total cpu time spent up to now is       43.8 secs

     total energy              =   -5624.19829024 Ry
     estimated scf accuracy    <       0.00038104 Ry

     iteration # 13     ecut=    40.42 Ry     beta= 0.70
     Davidson diagonalization with overlap
     ethr =  7.60E-09,  avg # of iterations =  2.0

     total cpu time spent up to now is       44.4 secs

     total energy              =   -5624.19830472 Ry
     estimated scf accuracy    <       0.00001315 Ry

     iteration # 14     ecut=    40.42 Ry     beta= 0.70
     Davidson diagonalization with overlap
     ethr =  3.60E-09,  avg # of iterations =  2.0

     total cpu time spent up to now is       45.1 secs

     total energy              =   -5624.19830291 Ry
     estimated scf accuracy    <       0.00005165 Ry

     iteration # 15     ecut=    40.42 Ry     beta= 0.70
     Davidson diagonalization with overlap
     ethr =  3.60E-09,  avg # of iterations =  2.0

     total cpu time spent up to now is       45.8 secs

     total energy              =   -5624.19830559 Ry
     estimated scf accuracy    <       0.00000228 Ry

     iteration # 16     ecut=    40.42 Ry     beta= 0.70
     Davidson diagonalization with overlap
     ethr =  6.24E-10,  avg # of iterations =  2.0

     total cpu time spent up to now is       46.5 secs

     total energy              =   -5624.19830522 Ry
     estimated scf accuracy    <       0.00001019 Ry

     iteration # 17     ecut=    40.42 Ry     beta= 0.70
     Davidson diagonalization with overlap
     ethr =  6.24E-10,  avg # of iterations =  2.0

     total cpu time spent up to now is       47.1 secs

     total energy              =   -5624.19830549 Ry
     estimated scf accuracy    <       0.00000837 Ry

     iteration # 18     ecut=    40.42 Ry     beta= 0.70
     Davidson diagonalization with overlap
     ethr =  6.24E-10,  avg # of iterations =  2.0

     total cpu time spent up to now is       47.8 secs

     total energy              =   -5624.19830565 Ry
     estimated scf accuracy    <       0.00000255 Ry

     iteration # 19     ecut=    40.42 Ry     beta= 0.70
     Davidson diagonalization with overlap
     ethr =  6.24E-10,  avg # of iterations =  2.0

     total cpu time spent up to now is       48.5 secs

     total energy              =   -5624.19830587 Ry
     estimated scf accuracy    <       0.00000154 Ry

     iteration # 20     ecut=    40.42 Ry     beta= 0.70
     Davidson diagonalization with overlap
     ethr =  4.21E-10,  avg # of iterations =  1.0

     total cpu time spent up to now is       49.0 secs

     End of self-consistent calculation

          k = 0.0000 0.0000 0.0000 ( 13539 PWs)   bands (ev):

   -90.9866 -90.9865 -90.9865 -90.8989 -90.8979 -90.7987 -90.7986 -90.7986
   -90.7979 -90.7979 -90.7979 -90.7363 -90.7362 -90.7362 -90.6550 -65.5383
   -50.9903 -50.9831 -50.9831 -50.9706 -50.9449 -50.9447 -50.9433 -50.9051
   -50.9051 -50.8937 -50.8936 -50.8645 -50.8644 -50.8617 -50.8232 -50.8075
   -50.8036 -50.8036 -50.8004 -50.8002 -50.7862 -50.7862 -50.7753 -50.7723
   -50.7621 -50.7620 -50.7506 -50.7506 -50.7505 -50.7466 -50.7466 -50.7400
   -50.7294 -50.7293 -50.6992 -50.6992 -50.6610 -50.6595 -50.6594 -50.6465
   -50.6464 -50.6306 -50.6305 -50.6254 -50.5343 -34.7380 -34.3256 -34.3255
    -1.4702  -0.2211  -0.1522   0.9050   0.9495   0.9495   1.3568   1.3664
     1.3964   1.3964   1.4191   1.4191   1.5683   1.5756   1.5756   2.2456
     5.9503   5.9503   5.9774   5.9989   6.0299   6.0299   6.0364   6.0364
     6.0377   6.2420   8.4554   8.4555   8.6968   8.6968   8.7062   8.7129
     8.7130   8.7812   8.7968   8.8329   8.8330   9.0468   9.0468   9.0663
     9.0846   9.1023   9.1023   9.1087   9.1332   9.1332   9.2486   9.2486
     9.2627   9.2650   9.2651   9.2835   9.2836   9.3164   9.3214   9.4319
     9.5331   9.5332   9.5426   9.6023   9.6024   9.6165   9.8138   9.8461
     9.8461  10.0561  10.0563  10.4447  10.4447  10.4810  10.4811  10.5190
    10.5191  10.5543  10.5699  10.5788  10.5789  10.5936  10.5938  10.6347
    10.6674  10.6675  10.6848  10.6910  10.6911  10.7424  10.7527  10.7528
    10.7769  10.7770  10.7870  10.8378  10.9404  10.9409  10.9409  10.9442
    10.9442  11.0759  11.1996  11.1996  11.2134  11.2648  11.2648  11.2756
    11.2758  11.2921  11.4569  11.4571  11.7063  12.1073  12.1680  12.2282
    12.3268  12.3269  12.4240  12.4241  12.8946  12.9056  12.9282  12.9282
    12.9791  13.0504  13.0504  13.3608  13.3608  14.0371  14.0372  14.1671
    14.2292  14.2316  14.2317  14.4907  14.4907  14.5186  14.7297  14.7298
    14.9862  14.9863  15.4884  15.6758  15.6758  16.1617  16.1873  16.4975
    16.4975  17.1942  17.1943  17.2022  17.7567  17.7567  17.7748  17.8333
    17.8333  18.0224  18.0224  18.0450

     the Fermi energy is    12.9049 ev

!    total energy              =   -5624.19830592 Ry
     estimated scf accuracy    <       0.00000006 Ry
     smearing contrib. (-TS)   =      -0.05007283 Ry
     internal energy E=F+TS    =   -5624.14823310 Ry

     The total energy is F=E-TS. E is the sum of the following terms:
     one-electron contribution =   -4206.88185442 Ry
     hartree contribution      =    2280.81012033 Ry
     xc contribution           =    -720.94914884 Ry
     ewald contribution        =   -2977.12735016 Ry

     convergence has been achieved in  20 iterations

     Forces acting on atoms (cartesian axes, Ry/au):

     atom    1 type  1   force =    -0.00000000    0.00000000    0.00000000
     atom    2 type  1   force =     0.00022704    0.00013108    0.00395433
     atom    3 type  1   force =     0.00000000    0.00000000    0.00000000
     atom    4 type  1   force =    -0.00022704   -0.00013108   -0.00395433
     atom    5 type  2   force =    -0.00661412    0.00381867   -0.02263265
     atom    6 type  2   force =    -0.00189382    0.00109340   -0.00639064
     atom    7 type  2   force =    -0.00661412   -0.00381867    0.02263265
     atom    8 type  2   force =    -0.00189382   -0.00109340    0.00639064
     atom    9 type  1   force =     0.00000000    0.00000000    0.00000000
     atom   10 type  1   force =     0.00000000    0.00000000    0.00245102
     atom   11 type  3   force =    -0.00000000    0.00000000    0.00000000
     atom   12 type  1   force =     0.00000000    0.00000000   -0.00245102
     atom   13 type  2   force =     0.00000000   -0.00763733   -0.02263265
     atom   14 type  2   force =     0.00000000   -0.00218679   -0.00639064
     atom   15 type  2   force =     0.00000000    0.00000000    0.00634775
     atom   16 type  2   force =     0.00000000    0.00000000    0.00811869
     atom   17 type  1   force =    -0.00000000   -0.00000000    0.00000000
     atom   18 type  1   force =     0.00000000    0.00026216   -0.00395433
     atom   19 type  1   force =     0.00000000   -0.00000000    0.00000000
     atom   20 type  1   force =     0.00000000   -0.00026216    0.00395433
     atom   21 type  2   force =     0.00000000    0.00000000   -0.00811869
     atom   22 type  2   force =    -0.00000000   -0.00000000   -0.00634775
     atom   23 type  2   force =    -0.00000000    0.00218679    0.00639064
     atom   24 type  2   force =     0.00000000    0.00763733    0.02263265
     atom   25 type  1   force =    -0.00000000    0.00000000    0.00000000
     atom   26 type  1   force =     0.00022704   -0.00013108   -0.00395433
     atom   27 type  1   force =     0.00000000   -0.00000000   -0.00000000
     atom   28 type  1   force =    -0.00022704    0.00013108    0.00395433
     atom   29 type  2   force =     0.00189382    0.00109340   -0.00639064
     atom   30 type  2   force =     0.00661412    0.00381867   -0.02263265
     atom   31 type  2   force =     0.00189382   -0.00109340    0.00639064
     atom   32 type  2   force =     0.00661412   -0.00381867    0.02263265
     The non-local contrib.  to forces
     atom    1 type  1   force =     0.00000000    0.00000000    0.00000000
     atom    2 type  1   force =    -0.02569198   -0.01483327   -0.05979305
     atom    3 type  1   force =     0.00000000    0.00000000    0.00000000
     atom    4 type  1   force =     0.02569198    0.01483327    0.05979305
     atom    5 type  2   force =    -0.00538191    0.00310725    0.01185373
     atom    6 type  2   force =     0.01849643   -0.01067892    0.00279025
     atom    7 type  2   force =    -0.00538191   -0.00310725   -0.01185373
     atom    8 type  2   force =     0.01849643    0.01067892   -0.00279025
     atom    9 type  1   force =     0.00000000   -0.00000000    0.00000000
     atom   10 type  1   force =     0.00000000    0.00000000   -0.08954416
     atom   11 type  3   force =    -0.00000000    0.00000000    0.00000000
     atom   12 type  1   force =     0.00000000    0.00000000    0.08954416
     atom   13 type  2   force =     0.00000000   -0.00621450    0.01185373
     atom   14 type  2   force =     0.00000000    0.02135784    0.00279025
     atom   15 type  2   force =     0.00000000    0.00000000   -0.00129064
[...]
     atom   32 type  2   force =    -0.00000463    0.00000267    0.00018091
     The non-local contrib.  to forces
     atom    1 type  1   force =     0.00000000    0.00000000    0.00000000
     atom    2 type  1   force =    -0.01242219   -0.00717195   -0.06129513
     atom    3 type  1   force =    -0.00000000    0.00000000    0.00000000
     atom    4 type  1   force =     0.01242219    0.00717195    0.06129513
     atom    5 type  2   force =    -0.00263952    0.00152393    0.01258477
     atom    6 type  2   force =     0.01671719   -0.00965167    0.00368382
     atom    7 type  2   force =    -0.00263952   -0.00152393   -0.01258477
     atom    8 type  2   force =     0.01671719    0.00965167   -0.00368382
     atom    9 type  1   force =     0.00000000    0.00000000    0.00000000
     atom   10 type  1   force =     0.00000000    0.00000000   -0.11633119
     atom   11 type  3   force =    -0.00000000    0.00000000    0.00000000
     atom   12 type  1   force =     0.00000000    0.00000000    0.11633119
     atom   13 type  2   force =     0.00000000   -0.00304785    0.01258477
     atom   14 type  2   force =    -0.00000000    0.01930334    0.00368382
     atom   15 type  2   force =    -0.00000000   -0.00000000   -0.00433816
     atom   16 type  2   force =     0.00000000    0.00000000   -0.00238648
     atom   17 type  1   force =    -0.00000000   -0.00000000    0.00000000
     atom   18 type  1   force =     0.00000000   -0.01434391    0.06129513
     atom   19 type  1   force =    -0.00000000    0.00000000    0.00000000
     atom   20 type  1   force =     0.00000000    0.01434391   -0.06129513
     atom   21 type  2   force =     0.00000000    0.00000000    0.00238648
     atom   22 type  2   force =     0.00000000    0.00000000    0.00433816
     atom   23 type  2   force =     0.00000000   -0.01930334   -0.00368382
     atom   24 type  2   force =    -0.00000000    0.00304785   -0.01258477
     atom   25 type  1   force =     0.00000000    0.00000000   -0.00000000
     atom   26 type  1   force =    -0.01242219    0.00717195    0.06129513
     atom   27 type  1   force =     0.00000000   -0.00000000    0.00000000
     atom   28 type  1   force =     0.01242219   -0.00717195   -0.06129513
     atom   29 type  2   force =    -0.01671719   -0.00965167    0.00368382
     atom   30 type  2   force =     0.00263952    0.00152393    0.01258477
     atom   31 type  2   force =    -0.01671719    0.00965167   -0.00368382
     atom   32 type  2   force =     0.00263952   -0.00152393   -0.01258477
     The ionic contribution  to forces
     atom    1 type  1   force =    -0.00000000    0.00000000    0.00000000
     atom    2 type  1   force =    -0.71109023   -0.41054813   -1.41092966
     atom    3 type  1   force =    -0.00000000    0.00000000    0.00000000
     atom    4 type  1   force =     0.71109023    0.41054813    1.41092966
     atom    5 type  2   force =    -0.49190252    0.28400005    0.59588463
     atom    6 type  2   force =     0.03253876   -0.01878626    0.54491672
     atom    7 type  2   force =    -0.49190286   -0.28400004   -0.59588464
     atom    8 type  2   force =     0.03253842    0.01878625   -0.54491671
     atom    9 type  1   force =    -0.00000000   -0.00000000    0.00000000
     atom   10 type  1   force =    -0.00000001    0.00000000    2.05045444
     atom   11 type  3   force =     0.00000000   -0.00000000    0.00000000
     atom   12 type  1   force =     0.00000001   -0.00000000   -2.05045444
     atom   13 type  2   force =     0.00000018   -0.56800039    0.59588464
     atom   14 type  2   force =     0.00000016    0.03757223    0.54491671
     atom   15 type  2   force =    -0.00000017    0.00000010   -0.25467187
     atom   16 type  2   force =    -0.00000017    0.00000010   -0.53623486
     atom   17 type  1   force =    -0.00000000    0.00000000   -0.00000000
     atom   18 type  1   force =     0.00000001   -0.82109627    1.41092966
     atom   19 type  1   force =     0.00000000    0.00000000   -0.00000000
     atom   20 type  1   force =    -0.00000001    0.82109627   -1.41092966
     atom   21 type  2   force =     0.00000017   -0.00000010    0.53623486
     atom   22 type  2   force =     0.00000017   -0.00000010    0.25467187
     atom   23 type  2   force =    -0.00000016   -0.03757223   -0.54491671
     atom   24 type  2   force =    -0.00000018    0.56800039   -0.59588464
     atom   25 type  1   force =     0.00000000    0.00000000    0.00000000
     atom   26 type  1   force =    -0.71109024    0.41054814    1.41092967
     atom   27 type  1   force =     0.00000000    0.00000000    0.00000000
     atom   28 type  1   force =     0.71109024   -0.41054814   -1.41092967
     atom   29 type  2   force =    -0.03253842   -0.01878626    0.54491671
     atom   30 type  2   force =     0.49190286    0.28400004    0.59588464
     atom   31 type  2   force =    -0.03253876    0.01878626   -0.54491672
     atom   32 type  2   force =     0.49190252   -0.28400005   -0.59588463
     The local contribution  to forces
     atom    1 type  1   force =     0.00000000    0.00000002   -0.00000000
     atom    2 type  1   force =     0.72353592    0.41773367    1.47085167
     atom    3 type  1   force =     0.00000000    0.00000002   -0.00000000
     atom    4 type  1   force =    -0.72353592   -0.41773364   -1.47085167
     atom    5 type  2   force =     0.49953106   -0.28840439   -0.59654287
     atom    6 type  2   force =    -0.04628399    0.02672207   -0.54286016
     atom    7 type  2   force =     0.49953144    0.28840439    0.59654289
     atom    8 type  2   force =    -0.04628361   -0.02672207    0.54286015
     atom    9 type  1   force =    -0.00000000    0.00000000    0.00000000
     atom   10 type  1   force =    -0.00000000    0.00000000   -1.93523165
     atom   11 type  3   force =    -0.00000000    0.00000000   -0.00000000
     atom   12 type  1   force =     0.00000000    0.00000000    1.93523165
     atom   13 type  2   force =    -0.00000019    0.57680911   -0.59654289
     atom   14 type  2   force =    -0.00000018   -0.05344381   -0.54286015
     atom   15 type  2   force =     0.00000019   -0.00000011    0.25752201
     atom   16 type  2   force =     0.00000019   -0.00000011    0.53301540
     atom   17 type  1   force =     0.00000000    0.00000003    0.00000000
     atom   18 type  1   force =     0.00000000    0.83546734   -1.47085167
     atom   19 type  1   force =    -0.00000000    0.00000003    0.00000000
     atom   20 type  1   force =     0.00000000   -0.83546728    1.47085167
     atom   21 type  2   force =    -0.00000019    0.00000011   -0.53301540
     atom   22 type  2   force =    -0.00000019    0.00000011   -0.25752201
     atom   23 type  2   force =     0.00000018    0.05344381    0.54286015
     atom   24 type  2   force =     0.00000019   -0.57680911    0.59654288
     atom   25 type  1   force =    -0.00000000    0.00000002   -0.00000000
     atom   26 type  1   force =     0.72353592   -0.41773364   -1.47085167
     atom   27 type  1   force =    -0.00000000    0.00000002   -0.00000000
     atom   28 type  1   force =    -0.72353592    0.41773367    1.47085167
     atom   29 type  2   force =     0.04628361    0.02672207   -0.54286015
     atom   30 type  2   force =    -0.49953144   -0.28840439   -0.59654288
     atom   31 type  2   force =     0.04628399   -0.02672207    0.54286016
     atom   32 type  2   force =    -0.49953106    0.28840439    0.59654287
     The core correction contribution to forces
     atom    1 type  1   force =    -0.00000000    0.00000000   -0.00000000
     atom    2 type  1   force =    -0.00000888    0.00000081    0.00110209
     atom    3 type  1   force =     0.00000000    0.00000000    0.00000000
     atom    4 type  1   force =     0.00000888   -0.00000081   -0.00110209
     atom    5 type  2   force =    -0.00498423    0.00287804   -0.01209859
     atom    6 type  2   force =    -0.00317724    0.00183437   -0.00542124
     atom    7 type  2   force =    -0.00498310   -0.00287735    0.01209968
     atom    8 type  2   force =    -0.00317639   -0.00183402    0.00542093
     atom    9 type  1   force =     0.00000000    0.00000000    0.00000000
     atom   10 type  1   force =     0.00000169    0.00000440    0.00098190
     atom   11 type  3   force =     0.00000000    0.00000000   -0.00000000
     atom   12 type  1   force =    -0.00000169   -0.00000440   -0.00098190
     atom   13 type  2   force =     0.00000013   -0.00575439   -0.01209854
     atom   14 type  2   force =    -0.00000015   -0.00366782   -0.00542133
     atom   15 type  2   force =     0.00000110    0.00000021    0.00126725
     atom   16 type  2   force =     0.00000038   -0.00000019    0.00540696
     atom   17 type  1   force =    -0.00000000    0.00000000   -0.00000000
     atom   18 type  1   force =    -0.00000305   -0.00002343   -0.00110073
     atom   19 type  1   force =    -0.00000000    0.00000000    0.00000000
     atom   20 type  1   force =     0.00000305    0.00002343    0.00110073
     atom   21 type  2   force =    -0.00000038    0.00000019   -0.00540696
     atom   22 type  2   force =    -0.00000110   -0.00000021   -0.00126725
     atom   23 type  2   force =     0.00000015    0.00366782    0.00542133
     atom   24 type  2   force =    -0.00000013    0.00575439    0.01209854
     atom   25 type  1   force =    -0.00000000    0.00000000    0.00000000
     atom   26 type  1   force =    -0.00001708    0.00000148   -0.00110025
     atom   27 type  1   force =     0.00000000    0.00000000   -0.00000000
     atom   28 type  1   force =     0.00001708   -0.00000148    0.00110025
     atom   29 type  2   force =     0.00317639    0.00183402   -0.00542093
     atom   30 type  2   force =     0.00498310    0.00287735   -0.01209968
     atom   31 type  2   force =     0.00317724   -0.00183437    0.00542124
     atom   32 type  2   force =     0.00498423   -0.00287804    0.01209859
     The Hubbard contrib.    to forces
     atom    1 type  1   force =     0.00000000    0.00000000    0.00000000
     atom    2 type  1   force =     0.00000000    0.00000000    0.00000000
     atom    3 type  1   force =     0.00000000    0.00000000    0.00000000
     atom    4 type  1   force =     0.00000000    0.00000000    0.00000000
     atom    5 type  2   force =     0.00000000    0.00000000    0.00000000
     atom    6 type  2   force =     0.00000000    0.00000000    0.00000000
     atom    7 type  2   force =     0.00000000    0.00000000    0.00000000
     atom    8 type  2   force =     0.00000000    0.00000000    0.00000000
     atom    9 type  1   force =     0.00000000    0.00000000    0.00000000
     atom   10 type  1   force =     0.00000000    0.00000000    0.00000000
     atom   11 type  3   force =     0.00000000    0.00000000    0.00000000
     atom   12 type  1   force =     0.00000000    0.00000000    0.00000000
     atom   13 type  2   force =     0.00000000    0.00000000    0.00000000
     atom   14 type  2   force =     0.00000000    0.00000000    0.00000000
     atom   15 type  2   force =     0.00000000    0.00000000    0.00000000
     atom   16 type  2   force =     0.00000000    0.00000000    0.00000000
     atom   17 type  1   force =     0.00000000    0.00000000    0.00000000
     atom   18 type  1   force =     0.00000000    0.00000000    0.00000000
     atom   19 type  1   force =     0.00000000    0.00000000    0.00000000
     atom   20 type  1   force =     0.00000000    0.00000000    0.00000000
     atom   21 type  2   force =     0.00000000    0.00000000    0.00000000
     atom   22 type  2   force =     0.00000000    0.00000000    0.00000000
     atom   23 type  2   force =     0.00000000    0.00000000    0.00000000
     atom   24 type  2   force =     0.00000000    0.00000000    0.00000000
     atom   25 type  1   force =     0.00000000    0.00000000    0.00000000
     atom   26 type  1   force =     0.00000000    0.00000000    0.00000000
     atom   27 type  1   force =     0.00000000    0.00000000    0.00000000
     atom   28 type  1   force =     0.00000000    0.00000000    0.00000000
     atom   29 type  2   force =     0.00000000    0.00000000    0.00000000
     atom   30 type  2   force =     0.00000000    0.00000000    0.00000000
     atom   31 type  2   force =     0.00000000    0.00000000    0.00000000
     atom   32 type  2   force =     0.00000000    0.00000000    0.00000000
     The SCF correction term to forces
     atom    1 type  1   force =    -0.00000000    0.00000000   -0.00000000
     atom    2 type  1   force =    -0.00001355   -0.00000780    0.00004829
     atom    3 type  1   force =     0.00000000   -0.00000000    0.00000000
     atom    4 type  1   force =     0.00001355    0.00000780   -0.00004829
     atom    5 type  2   force =    -0.00000071    0.00000041   -0.00000849
     atom    6 type  2   force =     0.00001018   -0.00000588    0.00000965
     atom    7 type  2   force =    -0.00000071   -0.00000041    0.00000849
     atom    8 type  2   force =     0.00001018    0.00000588   -0.00000965
     atom    9 type  1   force =    -0.00000000   -0.00000000    0.00000000
     atom   10 type  1   force =    -0.00000000   -0.00000000    0.00012159
     atom   11 type  3   force =     0.00000000   -0.00000000    0.00000000
     atom   12 type  1   force =     0.00000000    0.00000000   -0.00012159
     atom   13 type  2   force =    -0.00000000   -0.00000082   -0.00000849
     atom   14 type  2   force =     0.00000000    0.00001176    0.00000965
     atom   15 type  2   force =    -0.00000000   -0.00000000    0.00001708
     atom   16 type  2   force =     0.00000000    0.00000000   -0.00000563
     atom   17 type  1   force =     0.00000000   -0.00000000    0.00000000
     atom   18 type  1   force =     0.00000002   -0.00001563   -0.00004830
     atom   19 type  1   force =     0.00000000    0.00000000    0.00000000
     atom   20 type  1   force =    -0.00000002    0.00001563    0.00004830
     atom   21 type  2   force =    -0.00000000   -0.00000000    0.00000563
     atom   22 type  2   force =     0.00000000    0.00000000   -0.00001708
     atom   23 type  2   force =    -0.00000000   -0.00001176   -0.00000965
     atom   24 type  2   force =     0.00000000    0.00000082    0.00000849
     atom   25 type  1   force =    -0.00000000   -0.00000000    0.00000000
     atom   26 type  1   force =    -0.00001356    0.00000783   -0.00004829
     atom   27 type  1   force =     0.00000000    0.00000000   -0.00000000
     atom   28 type  1   force =     0.00001356   -0.00000783    0.00004829
     atom   29 type  2   force =    -0.00001018   -0.00000588    0.00000965
     atom   30 type  2   force =     0.00000071    0.00000041   -0.00000849
     atom   31 type  2   force =    -0.00001018    0.00000588   -0.00000965
     atom   32 type  2   force =     0.00000071   -0.00000041    0.00000849

     Total force =     0.001271     Total SCF correction =     0.000218
     SCF correction compared to forces is large: reduce conv_thr to get better values
     Energy error            =      2.5E-05 Ry
     Gradient error          =      3.3E-04 Ry/Bohr

     bfgs converged in  14 scf cycles and  13 bfgs steps
     (criteria: energy <  1.0E-04 Ry, force <  1.0E-03 Ry/Bohr)

     End of BFGS Geometry Optimization

     Final energy             =   -5624.2223234769 Ry

     File ./tutorial.bfgs deleted, as requested
Begin final coordinates

ATOMIC_POSITIONS (angstrom)
Ni           -1.8229020250        3.1573589245        0.0000000000
Ni           -1.8230295782        3.1572852816        2.5498554388
Ni           -1.8229020250        3.1573589245        5.0450660000
Ni           -1.8227744718        3.1574325674        7.5402765612
As           -1.8551333409        5.2808736331        6.1639648738
As           -1.8291225266        5.2658562824       11.2983004986
As           -1.8551333045        7.3485620650        3.9261671262
As           -1.8291224902        7.3635794157        8.8819635014
Ni            0.0000000000       -0.0000000000       -0.0000000000
Ni            0.0000000000        0.0000000000        2.5349941825
Mn           -0.0000000000        0.0000000000        5.0450660000
Ni           -0.0000000000       -0.0000000000        7.5551378175
As           -0.0000000182        2.0676884634        6.1639648738
As           -0.0000000182        2.0977231647       11.2983004986
As            0.0000000182        4.2098118888        3.7834672060
As            0.0000000182        4.2098118888        8.8748493365
Ni            0.0000000000        6.3147178490        5.0450660000
Ni            0.0000000000        6.3145705633        7.5402765612
Ni            0.0000000000        6.3147178490       10.0901320000
Ni            0.0000000000        6.3148651347       12.6399874388
As           -0.0000000182        8.4196238092       11.3054146635
As           -0.0000000182        8.4196238092       16.3967967940
As            0.0000000182       10.5317125334        8.8819635014
As            0.0000000182       10.5617472347       14.0162991262
Ni            1.8229020250        3.1573589245        5.0450660000
Ni            1.8227744718        3.1574325674        7.5402765612
Ni            1.8229020250        3.1573589245       10.0901320000
Ni            1.8230295782        3.1572852816       12.6399874388
As            1.8291224902        5.2658562824       11.2983004986
As            1.8551333045        5.2808736331       16.2540968738
As            1.8291225266        7.3635794157        8.8819635014
As            1.8551333409        7.3485620650       14.0162991262
End final coordinates



     Writing all to output data dir ./tutorial.save/
 
     init_run     :      0.50s CPU      0.53s WALL (       1 calls)
     electrons    :    210.68s CPU    218.47s WALL (      14 calls)
     update_pot   :      2.33s CPU      2.34s WALL (      13 calls)
     forces       :      3.97s CPU      4.17s WALL (      14 calls)

     Called by init_run:
     wfcinit      :      0.18s CPU      0.19s WALL (       1 calls)
     potinit      :      0.07s CPU      0.07s WALL (       1 calls)
     hinit0       :      0.17s CPU      0.18s WALL (       1 calls)

     Called by electrons:
     c_bands      :    172.03s CPU    177.51s WALL (     302 calls)
     sum_band     :     26.76s CPU     28.69s WALL (     302 calls)
     v_of_rho     :      2.47s CPU      2.49s WALL (     314 calls)
     newd         :      9.34s CPU      9.39s WALL (     314 calls)
     mix_rho      :      0.41s CPU      0.42s WALL (     302 calls)

     Called by c_bands:
     init_us_2    :      0.88s CPU      0.91s WALL (     605 calls)
     init_us_2:cp :      0.88s CPU      0.90s WALL (     605 calls)
     cegterg      :    168.04s CPU    173.38s WALL (     302 calls)

     Called by *egterg:
     cdiaghg      :     57.66s CPU     60.55s WALL (    1021 calls)
     h_psi        :     69.55s CPU     71.00s WALL (    1037 calls)
     s_psi        :      8.42s CPU      8.43s WALL (    1037 calls)
     g_psi        :      0.30s CPU      0.30s WALL (     734 calls)

     Called by h_psi:
     h_psi:calbec :      8.64s CPU      8.69s WALL (    1037 calls)
     vloc_psi     :     51.72s CPU     52.95s WALL (    1037 calls)
     add_vuspsi   :      8.57s CPU      8.74s WALL (    1037 calls)

     General routines
     calbec       :     13.05s CPU     13.13s WALL (    1395 calls)
     fft          :      1.33s CPU      1.35s WALL (    3623 calls)
     ffts         :      0.12s CPU      0.12s WALL (     302 calls)
     fftw         :     55.41s CPU     56.73s WALL (  365852 calls)
 
     Parallel routines
 
     PWSCF        :   3m38.34s CPU   3m46.69s WALL

 
   This run was terminated on:  15:10:51  30May2023            

=------------------------------------------------------------------------------=
   JOB DONE.
=------------------------------------------------------------------------------=
