
     Program PWSCF v.7.2 starts on 30May2023 at 15:13:49 

     This program is part of the open-source Quantum ESPRESSO suite
     for quantum simulation of materials; please cite
         "P. Giannozzi et al., J. Phys.:Condens. Matter 21 395502 (2009);
         "P. Giannozzi et al., J. Phys.:Condens. Matter 29 465901 (2017);
         "P. Giannozzi et al., J. Chem. Phys. 152 154105 (2020);
          URL http://www.quantum-espresso.org", 
     in publications or presentations arising from this work. More details at
     http://www.quantum-espresso.org/quote

     Parallel version (MPI), running on    28 processors

     MPI processes distributed on     1 nodes
     36536 MiB available memory on the printing compute node when the environment starts
 
     Waiting for input...
     Reading input from standard input
Warning: card &CELL ignored
Warning: card / ignored

     Current dimensions of program PWSCF are:
     Max number of different atomic species (ntypx) = 10
     Max number of k-points (npk) =  40000
     Max angular momentum in pseudopotentials (lmaxx) =  4
     file Mn.pbesol-spn-rrkjus_psl.0.3.1.UPF: wavefunction(s)  3D renormalized
     Message from routine setup:
     using ibrav=0 with symmetry is DISCOURAGED, use correct ibrav instead
 
     R & G space division:  proc/nbgrp/npool/nimage =      28
     Subspace diagonalization in iterative solution of the eigenvalue problem:
     a serial algorithm will be used

 
     Parallelization info
     --------------------
     sticks:   dense  smooth     PW     G-vecs:    dense   smooth      PW
     Min          96      96     23                 1940     1940     240
     Max          97      97     24                 1942     1942     243
     Sum        2693    2693    661                54349    54349    6759
 
     Using Slab Decomposition
 


     bravais-lattice index     =            0
     lattice parameter (alat)  =       6.8896  a.u.
     unit-cell volume          =    1567.6197 (a.u.)^3
     number of atoms/cell      =           16
     number of atomic types    =            3
     number of electrons       =       166.00
     number of Kohn-Sham states=          100
     kinetic-energy cutoff     =      40.4242  Ry
     charge density cutoff     =     161.6969  Ry
     scf convergence threshold =      1.0E-06
     mixing beta               =       0.7000
     number of iterations used =            8  plain     mixing
     energy convergence thresh.=      1.0E-04
     force convergence thresh. =      1.0E-03
     Exchange-correlation= PBESOL
                           (   1   4  10   8   0   0   0)
     nstep                     =           50


     celldm(1)=   6.889571  celldm(2)=   0.000000  celldm(3)=   0.000000
     celldm(4)=   0.000000  celldm(5)=   0.000000  celldm(6)=   0.000000

     crystal axes: (cart. coord. in units of alat)
               a(1) = (   0.500000   0.866025   0.000000 )  
               a(2) = (  -2.000000   3.464102   2.767601 )  
               a(3) = (   0.000000   0.000000   1.383801 )  

     reciprocal axes: (cart. coord. in units 2 pi/alat)
               b(1) = (  1.000000  0.577350  0.000000 )  
               b(2) = ( -0.250000  0.144338  0.000000 )  
               b(3) = (  0.500000 -0.288675  0.722647 )  


     PseudoPot. # 1 for Mn read from file:
     /home/valmzztt/Intermetallic_alloys/pseudos/Mn.pbesol-spn-rrkjus_psl.0.3.1.UPF
     MD5 check sum: 61e28eea34dae291f95a967fe31318f1
     Pseudo is Ultrasoft + core correction, Zval = 15.0
     Generated using &quot;atomic&quot; code by A. Dal Corso  v.6.3
     Using radial grid of 1187 points,  6 beta functions with: 
                l(1) =   0
                l(2) =   0
                l(3) =   1
                l(4) =   1
                l(5) =   2
                l(6) =   2
     Q(r) pseudized with 0 coefficients 


     PseudoPot. # 2 for As read from file:
     /home/valmzztt/Intermetallic_alloys/pseudos/As.pbesol-n-rrkjus_psl.1.0.0.UPF
     MD5 check sum: 2fb13bbab3d0b4e108be5408f3d6fe7c
     Pseudo is Ultrasoft + core correction, Zval =  5.0
     Generated using &quot;atomic&quot; code by A. Dal Corso  v.6.3
     Using radial grid of 1209 points,  4 beta functions with: 
                l(1) =   0
                l(2) =   0
                l(3) =   1
                l(4) =   1
     Q(r) pseudized with 0 coefficients 


     PseudoPot. # 3 for Ni read from file:
     /home/valmzztt/Intermetallic_alloys/pseudos/Ni.pbesol-spn-rrkjus_psl.1.0.0.UPF
     MD5 check sum: 6fc0a587bf949a08f2faed986b854013
     Pseudo is Ultrasoft + core correction, Zval = 18.0
     Generated using &quot;atomic&quot; code by A. Dal Corso  v.6.3
     Using radial grid of 1195 points,  6 beta functions with: 
                l(1) =   0
                l(2) =   0
                l(3) =   1
                l(4) =   1
                l(5) =   2
                l(6) =   2
     Q(r) pseudized with 0 coefficients 


     atomic species   valence    mass     pseudopotential
        Mn            15.00    54.93804     Mn( 1.00)
        As             5.00    74.92159     As( 1.00)
        Ni            18.00    58.69340     Ni( 1.00)

      4 Sym. Ops., with inversion, found ( 2 have fractional translation)



   Cartesian axes

     site n.     atom                  positions (alat units)
         1           Mn  tau(   1) = (  -1.5000000   2.5980762   2.0757010  )
         2           Mn  tau(   2) = (  -1.5000000   2.5980762   2.7676013  )
         3           As  tau(   3) = (  -1.5000000   3.1754265   3.1135515  )
         4           As  tau(   4) = (  -1.5000000   3.7527767   3.8054518  )
         5           Mn  tau(   5) = (  -1.0000000   1.7320508   1.3838006  )
         6           Ni  tau(   6) = (  -1.0000000   1.7320508   2.0757010  )
         7           As  tau(   7) = (  -1.0000000   2.3094011   1.7297508  )
         8           As  tau(   8) = (  -1.0000000   2.8867513   2.4216511  )
         9           Ni  tau(   9) = (  -0.5000000   0.8660254   0.6919003  )
        10           Mn  tau(  10) = (  -0.5000000   0.8660254   1.3838006  )
        11           As  tau(  11) = (  -0.5000000   1.4433757   1.7297508  )
        12           As  tau(  12) = (  -0.5000000   2.0207259   2.4216511  )
        13           Mn  tau(  13) = (   0.0000000   0.0000000   0.0000000  )
        14           Mn  tau(  14) = (   0.0000000   0.0000000   0.6919003  )
        15           As  tau(  15) = (  -0.0000000   0.5773503   0.3459502  )
        16           As  tau(  16) = (   0.0000000   1.1547005   1.0378505  )

     number of k points=     1  Gaussian smearing, width (Ry)=  0.0147
                       cart. coord. in units 2pi/alat
        k(    1) = (   0.0000000   0.0000000   0.0000000), wk =   2.0000000

     Dense  grid:    54349 G-vectors     FFT dimensions: (  27, 144,  40)

     Estimated max dynamical RAM per process >      11.87 MB

     Estimated total dynamical RAM >     332.42 MB

     Check: negative core charge=   -0.000079

     Initial potential from superposition of free atoms

     starting charge     165.9950, renormalised to     166.0000
     Starting wfcs are  112 randomized atomic wfcs

     total cpu time spent up to now is        0.5 secs

     Self-consistent Calculation

     iteration #  1     ecut=    40.42 Ry     beta= 0.70
     Davidson diagonalization with overlap
     ethr =  1.00E-02,  avg # of iterations =  2.0

     total cpu time spent up to now is        0.7 secs

     total energy              =   -2118.96105643 Ry
     estimated scf accuracy    <       4.67851075 Ry

     iteration #  2     ecut=    40.42 Ry     beta= 0.70
     Davidson diagonalization with overlap
     ethr =  2.82E-03,  avg # of iterations =  7.0

     total cpu time spent up to now is        1.0 secs

     total energy              =   -2106.80705052 Ry
     estimated scf accuracy    <     310.09644346 Ry

     iteration #  3     ecut=    40.42 Ry     beta= 0.70
     Davidson diagonalization with overlap
     ethr =  2.82E-03,  avg # of iterations = 15.0

     total cpu time spent up to now is        1.4 secs

     total energy              =   -2112.90132420 Ry
     estimated scf accuracy    <     372.76588913 Ry

     iteration #  4     ecut=    40.42 Ry     beta= 0.70
     Davidson diagonalization with overlap
     ethr =  2.82E-03,  avg # of iterations = 10.0

     total cpu time spent up to now is        1.7 secs

     total energy              =   -2122.13335728 Ry
     estimated scf accuracy    <       8.93036399 Ry

     iteration #  5     ecut=    40.42 Ry     beta= 0.70
     Davidson diagonalization with overlap
     ethr =  2.82E-03,  avg # of iterations =  2.0

     total cpu time spent up to now is        1.9 secs

     total energy              =   -2122.27966289 Ry
     estimated scf accuracy    <      11.10485583 Ry

     iteration #  6     ecut=    40.42 Ry     beta= 0.70
     Davidson diagonalization with overlap
     ethr =  2.82E-03,  avg # of iterations =  1.0

     total cpu time spent up to now is        2.0 secs

     total energy              =   -2122.28097248 Ry
     estimated scf accuracy    <       1.92082950 Ry

     iteration #  7     ecut=    40.42 Ry     beta= 0.70
     Davidson diagonalization with overlap
     ethr =  1.16E-03,  avg # of iterations =  1.0

     total cpu time spent up to now is        2.2 secs

     total energy              =   -2122.30258140 Ry
     estimated scf accuracy    <       2.86789174 Ry

     iteration #  8     ecut=    40.42 Ry     beta= 0.70
     Davidson diagonalization with overlap
     ethr =  1.16E-03,  avg # of iterations =  2.0

     total cpu time spent up to now is        2.3 secs

     total energy              =   -2122.19104008 Ry
     estimated scf accuracy    <       5.92752096 Ry

     iteration #  9     ecut=    40.42 Ry     beta= 0.70
     Davidson diagonalization with overlap
     ethr =  1.16E-03,  avg # of iterations =  1.0

     total cpu time spent up to now is        2.4 secs

     total energy              =   -2122.36425191 Ry
     estimated scf accuracy    <       0.13159376 Ry

     iteration # 10     ecut=    40.42 Ry     beta= 0.70
     Davidson diagonalization with overlap
     ethr =  7.93E-05,  avg # of iterations =  4.0

     total cpu time spent up to now is        2.6 secs

     total energy              =   -2122.37152752 Ry
     estimated scf accuracy    <       0.04388187 Ry

     iteration # 11     ecut=    40.42 Ry     beta= 0.70
     Davidson diagonalization with overlap
     ethr =  2.64E-05,  avg # of iterations =  2.0

     total cpu time spent up to now is        2.7 secs

     total energy              =   -2122.37069146 Ry
     estimated scf accuracy    <       0.09029459 Ry

     iteration # 12     ecut=    40.42 Ry     beta= 0.70
     Davidson diagonalization with overlap
     ethr =  2.64E-05,  avg # of iterations =  1.0

     total cpu time spent up to now is        2.9 secs

     total energy              =   -2122.37148754 Ry
     estimated scf accuracy    <       0.01364300 Ry

     iteration # 13     ecut=    40.42 Ry     beta= 0.70
     Davidson diagonalization with overlap
     ethr =  8.22E-06,  avg # of iterations =  7.0

     total cpu time spent up to now is        3.0 secs

     total energy              =   -2122.37248976 Ry
     estimated scf accuracy    <       0.00836560 Ry

     iteration # 14     ecut=    40.42 Ry     beta= 0.70
     Davidson diagonalization with overlap
     ethr =  5.04E-06,  avg # of iterations =  1.0

     total cpu time spent up to now is        3.2 secs

     total energy              =   -2122.37239483 Ry
     estimated scf accuracy    <       0.02165796 Ry

     iteration # 15     ecut=    40.42 Ry     beta= 0.70
     Davidson diagonalization with overlap
     ethr =  5.04E-06,  avg # of iterations =  1.0

     total cpu time spent up to now is        3.3 secs

     total energy              =   -2122.37261955 Ry
     estimated scf accuracy    <       0.00052080 Ry

     iteration # 16     ecut=    40.42 Ry     beta= 0.70
     Davidson diagonalization with overlap
     ethr =  3.14E-07,  avg # of iterations =  4.0

     total cpu time spent up to now is        3.5 secs

     total energy              =   -2122.37272513 Ry
     estimated scf accuracy    <       0.00028444 Ry

     iteration # 17     ecut=    40.42 Ry     beta= 0.70
     Davidson diagonalization with overlap
     ethr =  1.71E-07,  avg # of iterations =  2.0

     total cpu time spent up to now is        3.6 secs

     total energy              =   -2122.37271605 Ry
     estimated scf accuracy    <       0.00026372 Ry

     iteration # 18     ecut=    40.42 Ry     beta= 0.70
     Davidson diagonalization with overlap
     ethr =  1.59E-07,  avg # of iterations =  2.0

     total cpu time spent up to now is        3.8 secs

     total energy              =   -2122.37270180 Ry
     estimated scf accuracy    <       0.00077099 Ry

     iteration # 19     ecut=    40.42 Ry     beta= 0.70
     Davidson diagonalization with overlap
     ethr =  1.59E-07,  avg # of iterations =  2.0

     total cpu time spent up to now is        3.9 secs

     total energy              =   -2122.37271336 Ry
     estimated scf accuracy    <       0.00098509 Ry

     iteration # 20     ecut=    40.42 Ry     beta= 0.70
     Davidson diagonalization with overlap
     ethr =  1.59E-07,  avg # of iterations =  1.0

     total cpu time spent up to now is        4.1 secs

     total energy              =   -2122.37273675 Ry
     estimated scf accuracy    <       0.00004612 Ry

     iteration # 21     ecut=    40.42 Ry     beta= 0.70
     Davidson diagonalization with overlap
     ethr =  2.78E-08,  avg # of iterations =  2.0

     total cpu time spent up to now is        4.2 secs

     total energy              =   -2122.37273384 Ry
     estimated scf accuracy    <       0.00018890 Ry

     iteration # 22     ecut=    40.42 Ry     beta= 0.70
     Davidson diagonalization with overlap
     ethr =  2.78E-08,  avg # of iterations =  1.0

     total cpu time spent up to now is        4.3 secs

     total energy              =   -2122.37273932 Ry
     estimated scf accuracy    <       0.00000265 Ry

     iteration # 23     ecut=    40.42 Ry     beta= 0.70
     Davidson diagonalization with overlap
     ethr =  1.60E-09,  avg # of iterations =  3.0

     total cpu time spent up to now is        4.5 secs

     total energy              =   -2122.37273941 Ry
     estimated scf accuracy    <       0.00000420 Ry

     iteration # 24     ecut=    40.42 Ry     beta= 0.70
     Davidson diagonalization with overlap
     ethr =  1.60E-09,  avg # of iterations =  2.0

     total cpu time spent up to now is        4.6 secs

     total energy              =   -2122.37273927 Ry
     estimated scf accuracy    <       0.00003161 Ry

     iteration # 25     ecut=    40.42 Ry     beta= 0.70
     Davidson diagonalization with overlap
     ethr =  1.60E-09,  avg # of iterations =  2.0

     total cpu time spent up to now is        4.8 secs

     total energy              =   -2122.37273960 Ry
     estimated scf accuracy    <       0.00000135 Ry

     iteration # 26     ecut=    40.42 Ry     beta= 0.70
     Davidson diagonalization with overlap
     ethr =  8.15E-10,  avg # of iterations =  2.0

     total cpu time spent up to now is        4.9 secs

     End of self-consistent calculation

          k = 0.0000 0.0000 0.0000 (  6759 PWs)   bands (ev):

   -90.3802 -90.3802 -65.4122 -65.4119 -65.3518 -65.3515 -65.0484 -65.0481
   -50.5153 -50.5006 -50.4087 -50.3943 -50.1504 -50.1138 -34.9458 -34.9445
   -34.5923 -34.5920 -34.3694 -34.3683 -34.1641 -34.1625 -34.0980 -34.0967
   -34.0605 -34.0541 -33.9831 -33.9778 -33.8023 -33.7984 -33.7695 -33.7680
    -0.9995  -0.2148  -0.1873   1.4022   1.8945   2.5939   2.6233   2.6991
     6.5325   6.5546   7.4573   7.4884   8.4163   8.4196   9.0351   9.0647
     9.2121   9.2702   9.3173   9.3474   9.3550   9.3925   9.4996   9.6663
    10.0813  10.1055  10.3814  10.4482  10.4573  10.5009  10.5069  10.8892
    10.9416  11.0913  11.2024  11.4763  11.6762  11.7820  12.0500  12.4336
    12.5662  12.6159  12.7153  12.8125  12.9114  12.9998  13.1934  13.2081
    13.3829  13.4378  13.4856  13.5351  13.5659  13.5670  13.6024  13.6242
    13.6356  14.0167  14.2571  14.5343  14.8966  15.0679  15.1634  15.7956
    16.0373  16.3674  16.5966  16.6532

     the Fermi energy is    13.4714 ev

!    total energy              =   -2122.37273917 Ry
     estimated scf accuracy    <       0.00000059 Ry
     smearing contrib. (-TS)   =      -0.06082435 Ry
     internal energy E=F+TS    =   -2122.31191482 Ry

     The total energy is F=E-TS. E is the sum of the following terms:
     one-electron contribution =   -1349.24675977 Ry
     hartree contribution      =     755.83821096 Ry
     xc contribution           =    -326.05143135 Ry
     ewald contribution        =   -1202.85193466 Ry

     convergence has been achieved in  26 iterations

     Forces acting on atoms (cartesian axes, Ry/au):

     atom    1 type  1   force =    -0.00514559    0.00297081    0.00577842
     atom    2 type  1   force =    -0.00131092    0.00075686   -0.00756445
     atom    3 type  2   force =     0.00101837   -0.00058796   -0.00992162
     atom    4 type  2   force =    -0.00101837    0.00058796    0.00992162
     atom    5 type  1   force =    -0.00365963    0.00211289   -0.00433712
     atom    6 type  3   force =     0.00224080   -0.00129373    0.00177747
     atom    7 type  2   force =     0.01159082   -0.00669196   -0.03988366
     atom    8 type  2   force =     0.00059872   -0.00034567    0.01502296
     atom    9 type  3   force =    -0.00224080    0.00129373   -0.00177747
     atom   10 type  1   force =     0.00365963   -0.00211289    0.00433712
     atom   11 type  2   force =     0.01456555   -0.00840942   -0.06175439
     atom   12 type  2   force =    -0.01456555    0.00840942    0.06175439
     atom   13 type  1   force =     0.00131092   -0.00075686    0.00756445
     atom   14 type  1   force =     0.00514559   -0.00297081   -0.00577842
     atom   15 type  2   force =    -0.00059872    0.00034567   -0.01502296
     atom   16 type  2   force =    -0.01159082    0.00669196    0.03988366
     The non-local contrib.  to forces
     atom    1 type  1   force =    -0.00820823    0.00473903    0.00276735
     atom    2 type  1   force =     0.01028775   -0.00593963    0.00410961
     atom    3 type  2   force =    -0.00940279    0.00542870   -0.00691278
     atom    4 type  2   force =     0.00940279   -0.00542870    0.00691278
     atom    5 type  1   force =     0.01658572   -0.00957577    0.00324418
     atom    6 type  3   force =     0.00307070   -0.00177287    0.00386731
     atom    7 type  2   force =     0.00705219   -0.00407158    0.02052313
     atom    8 type  2   force =     0.01150978   -0.00664517   -0.01291246
     atom    9 type  3   force =    -0.00307070    0.00177287   -0.00386731
     atom   10 type  1   force =    -0.01658572    0.00957577   -0.00324418
     atom   11 type  2   force =     0.00060779   -0.00035091    0.03765075
     atom   12 type  2   force =    -0.00060779    0.00035091   -0.03765075
     atom   13 type  1   force =    -0.01028775    0.00593963   -0.00410961
     atom   14 type  1   force =     0.00820823   -0.00473903   -0.00276735
     atom   15 type  2   force =    -0.01150978    0.00664517    0.01291246
     atom   16 type  2   force =    -0.00705219    0.00407158   -0.02052313
     The ionic contribution  to forces
     atom    1 type  1   force =    -3.92351581    2.26524291   -0.00000000
     atom    2 type  1   force =    -3.41097713    1.96932856    0.00000000
     atom    3 type  2   force =    -0.41812171    0.24140268   -0.04004072
     atom    4 type  2   force =     0.41812171   -0.24140268    0.04004072
     atom    5 type  1   force =    -3.41097713    1.96932857    0.00000000
     atom    6 type  3   force =    -4.70821898    2.71829150    0.00000000
     atom    7 type  2   force =    -2.16199690    1.24822949   -0.92675219
     atom    8 type  2   force =    -2.16199720    1.24822966    0.50005224
     atom    9 type  3   force =     4.70821898   -2.71829149    0.00000000
     atom   10 type  1   force =     3.41097713   -1.96932856   -0.00000000
     atom   11 type  2   force =     0.41812201   -0.24140286   -1.38676371
     atom   12 type  2   force =    -0.41812201    0.24140286    1.38676371
     atom   13 type  1   force =     3.41097713   -1.96932856    0.00000000
     atom   14 type  1   force =     3.92351582   -2.26524291    0.00000000
     atom   15 type  2   force =     2.16199720   -1.24822966   -0.50005224
     atom   16 type  2   force =     2.16199689   -1.24822949    0.92675219
     The local contribution  to forces
     atom    1 type  1   force =     3.93076312   -2.26942715    0.00264880
     atom    2 type  1   force =     3.39953030   -1.96271974   -0.01082406
     atom    3 type  2   force =     0.42811054   -0.24716974    0.03594404
     atom    4 type  2   force =    -0.42811054    0.24716974   -0.03594404
     atom    5 type  1   force =     3.38950695   -1.95693273   -0.00644844
     atom    6 type  3   force =     4.70733423   -2.71778064   -0.00276124
     atom    7 type  2   force =     2.17040608   -1.25308453    0.87349361
     atom    8 type  2   force =     2.15506699   -1.24422851   -0.47678502
     atom    9 type  3   force =    -4.70733423    2.71778072    0.00276124
     atom   10 type  1   force =    -3.38950695    1.95693276    0.00644844
     atom   11 type  2   force =    -0.40396969    0.23323201    1.30066274
     atom   12 type  2   force =     0.40396969   -0.23323201   -1.30066274
     atom   13 type  1   force =    -3.39953030    1.96271974    0.01082406
     atom   14 type  1   force =    -3.93076312    2.26942715   -0.00264880
     atom   15 type  2   force =    -2.15506699    1.24422850    0.47678502
     atom   16 type  2   force =    -2.17040608    1.25308453   -0.87349361
     The core correction contribution to forces
     atom    1 type  1   force =    -0.00295181    0.00170368    0.00017060
     atom    2 type  1   force =     0.00128610   -0.00075206   -0.00065935
     atom    3 type  2   force =     0.00058248   -0.00033623    0.00100687
     atom    4 type  2   force =    -0.00058248    0.00033623   -0.00100687
     atom    5 type  1   force =     0.00099718   -0.00058014   -0.00076845
     atom    6 type  3   force =    -0.00023406    0.00013603    0.00006197
     atom    7 type  2   force =    -0.00354352    0.00204471   -0.00728247
     atom    8 type  2   force =    -0.00345715    0.00199627    0.00479587
     atom    9 type  3   force =     0.00023406   -0.00013603   -0.00006197
     atom   10 type  1   force =    -0.00099718    0.00058014    0.00076845
     atom   11 type  2   force =    -0.00018451    0.00010572   -0.01340864
     atom   12 type  2   force =     0.00018451   -0.00010572    0.01340864
     atom   13 type  1   force =    -0.00128610    0.00075206    0.00065935
     atom   14 type  1   force =     0.00295181   -0.00170368   -0.00017060
     atom   15 type  2   force =     0.00345715   -0.00199627   -0.00479587
     atom   16 type  2   force =     0.00354352   -0.00204471    0.00728247
     The Hubbard contrib.    to forces
     atom    1 type  1   force =     0.00000000    0.00000000    0.00000000
     atom    2 type  1   force =     0.00000000    0.00000000    0.00000000
     atom    3 type  2   force =     0.00000000    0.00000000    0.00000000
     atom    4 type  2   force =     0.00000000    0.00000000    0.00000000
     atom    5 type  1   force =     0.00000000    0.00000000    0.00000000
     atom    6 type  3   force =     0.00000000    0.00000000    0.00000000
     atom    7 type  2   force =     0.00000000    0.00000000    0.00000000
     atom    8 type  2   force =     0.00000000    0.00000000    0.00000000
     atom    9 type  3   force =     0.00000000    0.00000000    0.00000000
     atom   10 type  1   force =     0.00000000    0.00000000    0.00000000
     atom   11 type  2   force =     0.00000000    0.00000000    0.00000000
     atom   12 type  2   force =     0.00000000    0.00000000    0.00000000
     atom   13 type  1   force =     0.00000000    0.00000000    0.00000000
     atom   14 type  1   force =     0.00000000    0.00000000    0.00000000
     atom   15 type  2   force =     0.00000000    0.00000000    0.00000000
     atom   16 type  2   force =     0.00000000    0.00000000    0.00000000
     The SCF correction term to forces
     atom    1 type  1   force =    -0.00123309    0.00071194    0.00019167
     atom    2 type  1   force =    -0.00144207    0.00083257   -0.00019065
     atom    3 type  2   force =    -0.00015012    0.00008667    0.00008097
     atom    4 type  2   force =     0.00015012   -0.00008667   -0.00008097
     atom    5 type  1   force =     0.00022575   -0.00013033   -0.00036441
     atom    6 type  3   force =     0.00028947   -0.00016675    0.00060944
     atom    7 type  2   force =    -0.00032753    0.00018910    0.00013425
     atom    8 type  2   force =    -0.00052357    0.00030229   -0.00012768
     atom    9 type  3   force =    -0.00028947    0.00016675   -0.00060944
     atom   10 type  1   force =    -0.00022575    0.00013033    0.00036441
     atom   11 type  2   force =    -0.00001040    0.00000601    0.00010446
     atom   12 type  2   force =     0.00001040   -0.00000601   -0.00010446
     atom   13 type  1   force =     0.00144207   -0.00083257    0.00019065
     atom   14 type  1   force =     0.00123309   -0.00071194   -0.00019167
     atom   15 type  2   force =     0.00052357   -0.00030229    0.00012768
     atom   16 type  2   force =     0.00032753   -0.00018910   -0.00013425

     Total force =     0.112845     Total SCF correction =     0.003506

     BFGS Geometry Optimization
     Energy error            =      0.0E+00 Ry
     Gradient error          =      6.2E-02 Ry/Bohr

     number of scf cycles    =   1
     number of bfgs steps    =   0

     energy             new  =   -2122.3727391694 Ry

     new trust radius        =       0.0640037381 bohr
     new conv_thr            =       0.0000010000 Ry


ATOMIC_POSITIONS (angstrom)
Mn           -5.4714290061        9.4736488586        7.5706568087
Mn           -5.4693997833        9.4724772862       10.0861290658
As           -5.4681671926       11.5766715994       11.3461482043
As           -5.4692449574       13.6821997968       13.8791817957
Mn           -3.6477406431        6.3158359415        5.0427708930
Ni           -3.6446182682        6.3140332376        7.5685395988
As           -3.6396704702        8.4160825747        6.2852269749
As           -3.6454872016       10.5243468159        8.8368153058
Ni           -1.8240878068        3.1580435359        2.5215924012
Mn           -1.8209654319        3.1562408320        5.0473611070
As           -1.8151942874        5.2578148098        6.2736534831
As           -1.8306097626        7.3716208883        8.8615445169
Mn            0.0006937083       -0.0004005126        0.0040029342
Mn            0.0027229311       -0.0015720850        2.5194751913
As           -0.0003168484        2.1050888822        1.2533166942
As           -0.0061335798        4.2133531233        3.8049050251



     Writing config-only to output data dir ./tutorial.save/
     NEW-OLD atomic charge density approx. for the potential

     Check: negative core charge=   -0.000079

     total cpu time spent up to now is        5.2 secs

     Self-consistent Calculation

     iteration #  1     ecut=    40.42 Ry     beta= 0.70
     Davidson diagonalization with overlap
     ethr =  1.00E-06,  avg # of iterations =  6.0

     total cpu time spent up to now is        5.5 secs

     total energy              =   -2122.34705214 Ry
     estimated scf accuracy    <       0.04307894 Ry

     iteration #  2     ecut=    40.42 Ry     beta= 0.70
     Davidson diagonalization with overlap
     ethr =  2.60E-05,  avg # of iterations = 12.0

     total cpu time spent up to now is        5.8 secs

     total energy              =   -2121.61601590 Ry
     estimated scf accuracy    <      76.90127614 Ry

     iteration #  3     ecut=    40.42 Ry     beta= 0.70
     Davidson diagonalization with overlap
     ethr =  2.60E-05,  avg # of iterations = 10.0

     total cpu time spent up to now is        6.2 secs

     total energy              =   -2122.36330967 Ry
     estimated scf accuracy    <       0.67097359 Ry

     iteration #  4     ecut=    40.42 Ry     beta= 0.70
     Davidson diagonalization with overlap
     ethr =  2.60E-05,  avg # of iterations =  4.0

     total cpu time spent up to now is        6.3 secs

     total energy              =   -2122.38038159 Ry
     estimated scf accuracy    <       0.11411067 Ry

     iteration #  5     ecut=    40.42 Ry     beta= 0.70
     Davidson diagonalization with overlap
     ethr =  2.60E-05,  avg # of iterations =  4.0

     total cpu time spent up to now is        6.5 secs

     total energy              =   -2122.38342177 Ry
     estimated scf accuracy    <       0.01978961 Ry

     iteration #  6     ecut=    40.42 Ry     beta= 0.70
     Davidson diagonalization with overlap
     ethr =  1.19E-05,  avg # of iterations =  1.0

     total cpu time spent up to now is        6.6 secs

     total energy              =   -2122.38396061 Ry
     estimated scf accuracy    <       0.00270966 Ry

     iteration #  7     ecut=    40.42 Ry     beta= 0.70
     Davidson diagonalization with overlap
     ethr =  1.63E-06,  avg # of iterations =  4.0

     total cpu time spent up to now is        6.8 secs

     total energy              =   -2122.38408884 Ry
     estimated scf accuracy    <       0.00048592 Ry

     iteration #  8     ecut=    40.42 Ry     beta= 0.70
     Davidson diagonalization with overlap
     ethr =  2.93E-07,  avg # of iterations =  4.0

     total cpu time spent up to now is        7.0 secs

     total energy              =   -2122.38413614 Ry
     estimated scf accuracy    <       0.00110270 Ry

     iteration #  9     ecut=    40.42 Ry     beta= 0.70
     Davidson diagonalization with overlap
     ethr =  2.93E-07,  avg # of iterations =  2.0

     total cpu time spent up to now is        7.1 secs

     total energy              =   -2122.38415951 Ry
     estimated scf accuracy    <       0.00015405 Ry

     iteration # 10     ecut=    40.42 Ry     beta= 0.70
     Davidson diagonalization with overlap
     ethr =  9.28E-08,  avg # of iterations =  2.0

     total cpu time spent up to now is        7.2 secs

     total energy              =   -2122.38416888 Ry
     estimated scf accuracy    <       0.00001258 Ry

     iteration # 11     ecut=    40.42 Ry     beta= 0.70
     Davidson diagonalization with overlap
     ethr =  7.58E-09,  avg # of iterations =  5.0

     total cpu time spent up to now is        7.5 secs

     total energy              =   -2122.38417137 Ry
     estimated scf accuracy    <       0.00012457 Ry

     iteration # 12     ecut=    40.42 Ry     beta= 0.70
     Davidson diagonalization with overlap
     ethr =  7.58E-09,  avg # of iterations =  2.0

     total cpu time spent up to now is        7.6 secs

     total energy              =   -2122.38417231 Ry
     estimated scf accuracy    <       0.00000931 Ry

     iteration # 13     ecut=    40.42 Ry     beta= 0.70
     Davidson diagonalization with overlap
     ethr =  5.61E-09,  avg # of iterations =  1.0

     total cpu time spent up to now is        7.7 secs

     total energy              =   -2122.38417111 Ry
     estimated scf accuracy    <       0.00000575 Ry

     iteration # 14     ecut=    40.42 Ry     beta= 0.70
     Davidson diagonalization with overlap
     ethr =  3.46E-09,  avg # of iterations =  5.0

     total cpu time spent up to now is        7.9 secs

     total energy              =   -2122.38415629 Ry
     estimated scf accuracy    <       0.00098020 Ry

     iteration # 15     ecut=    40.42 Ry     beta= 0.70
     Davidson diagonalization with overlap
     ethr =  3.46E-09,  avg # of iterations =  5.0

     total cpu time spent up to now is        8.2 secs

     total energy              =   -2122.38417025 Ry
     estimated scf accuracy    <       0.00011556 Ry

     iteration # 16     ecut=    40.42 Ry     beta= 0.70
     Davidson diagonalization with overlap
     ethr =  3.46E-09,  avg # of iterations =  4.0

     total cpu time spent up to now is        8.3 secs

     total energy              =   -2122.38417241 Ry
     estimated scf accuracy    <       0.00000536 Ry

     iteration # 17     ecut=    40.42 Ry     beta= 0.70
     Davidson diagonalization with overlap
     ethr =  3.23E-09,  avg # of iterations =  2.0

     total cpu time spent up to now is        8.5 secs

     total energy              =   -2122.38417250 Ry
     estimated scf accuracy    <       0.00000159 Ry

     iteration # 18     ecut=    40.42 Ry     beta= 0.70
     Davidson diagonalization with overlap
     ethr =  9.56E-10,  avg # of iterations =  2.0

     total cpu time spent up to now is        8.6 secs

     total energy              =   -2122.38417252 Ry
     estimated scf accuracy    <       0.00000135 Ry

     iteration # 19     ecut=    40.42 Ry     beta= 0.70
     Davidson diagonalization with overlap
     ethr =  8.15E-10,  avg # of iterations =  2.0

     total cpu time spent up to now is        8.7 secs

     total energy              =   -2122.38417250 Ry
     estimated scf accuracy    <       0.00000104 Ry

     iteration # 20     ecut=    40.42 Ry     beta= 0.70
     Davidson diagonalization with overlap
     ethr =  6.29E-10,  avg # of iterations =  1.0

     total cpu time spent up to now is        8.9 secs

     End of self-consistent calculation

          k = 0.0000 0.0000 0.0000 (  6759 PWs)   bands (ev):

   -90.3022 -90.3021 -65.4142 -65.4139 -65.3592 -65.3589 -65.0509 -65.0506
   -50.4267 -50.4123 -50.3466 -50.3319 -50.0669 -50.0310 -34.9511 -34.9499
   -34.5974 -34.5971 -34.3538 -34.3527 -34.1623 -34.1606 -34.1106 -34.1094
   -34.0594 -34.0528 -33.9921 -33.9868 -33.8098 -33.8057 -33.7942 -33.7927
    -0.9963  -0.2092  -0.1896   1.4128   1.8798   2.5968   2.6198   2.6941
     6.5278   6.5785   7.4549   7.4774   8.4295   8.4304   9.0598   9.0983
     9.2401   9.2674   9.3441   9.3499   9.3511   9.4029   9.4769   9.6788
    10.0825  10.1302  10.4062  10.4643  10.4938  10.5008  10.5403  10.8978
    10.9544  11.1047  11.2113  11.5268  11.7433  11.7585  12.0383  12.4493
    12.5740  12.5879  12.7110  12.8146  12.8982  13.0044  13.1819  13.2107
    13.3705  13.4350  13.4714  13.5277  13.5570  13.5605  13.5982  13.6325
    13.6444  14.0457  14.2872  14.5392  14.9164  15.0834  15.1589  15.7836
    16.0436  16.3609  16.5689  16.6896

     the Fermi energy is    13.4658 ev

!    total energy              =   -2122.38417253 Ry
     estimated scf accuracy    <       0.00000006 Ry
     smearing contrib. (-TS)   =      -0.05990009 Ry
     internal energy E=F+TS    =   -2122.32427244 Ry

     The total energy is F=E-TS. E is the sum of the following terms:
     one-electron contribution =   -1348.88420766 Ry
     hartree contribution      =     755.71976878 Ry
     xc contribution           =    -326.06320673 Ry
     ewald contribution        =   -1203.09662684 Ry

     convergence has been achieved in  20 iterations

     Forces acting on atoms (cartesian axes, Ry/au):

     atom    1 type  1   force =    -0.00743838    0.00429455    0.00496896
     atom    2 type  1   force =     0.00347858   -0.00200836   -0.00721252
     atom    3 type  2   force =     0.00109926   -0.00063466   -0.00610986
     atom    4 type  2   force =    -0.00109926    0.00063466    0.00610986
     atom    5 type  1   force =    -0.00520122    0.00300293   -0.00343289
     atom    6 type  3   force =     0.00346379   -0.00199982    0.00046358
     atom    7 type  2   force =     0.01100593   -0.00635428   -0.02948705
     atom    8 type  2   force =     0.00014097   -0.00008139    0.01012839
     atom    9 type  3   force =    -0.00346379    0.00199982   -0.00046358
     atom   10 type  1   force =     0.00520122   -0.00300293    0.00343289
     atom   11 type  2   force =     0.01303809   -0.00752754   -0.04971884
     atom   12 type  2   force =    -0.01303809    0.00752754    0.04971884
     atom   13 type  1   force =    -0.00347858    0.00200836    0.00721252
     atom   14 type  1   force =     0.00743838   -0.00429455   -0.00496896
     atom   15 type  2   force =    -0.00014097    0.00008139   -0.01012839
     atom   16 type  2   force =    -0.01100593    0.00635428    0.02948705
     The non-local contrib.  to forces
     atom    1 type  1   force =    -0.01088475    0.00628432    0.00455738
     atom    2 type  1   force =     0.01267031   -0.00731521    0.00251751
     atom    3 type  2   force =    -0.00917796    0.00529890   -0.00671837
     atom    4 type  2   force =     0.00917796   -0.00529890    0.00671837
     atom    5 type  1   force =     0.01927734   -0.01112978    0.00189614
     atom    6 type  3   force =    -0.00293950    0.00169712    0.00518331
     atom    7 type  2   force =     0.00509355   -0.00294076    0.02384618
     atom    8 type  2   force =     0.01057582   -0.00610595   -0.01298800
     atom    9 type  3   force =     0.00293950   -0.00169712   -0.00518331
     atom   10 type  1   force =    -0.01927734    0.01112978   -0.00189614
     atom   11 type  2   force =    -0.00000024    0.00000014    0.03662049
     atom   12 type  2   force =     0.00000024   -0.00000014   -0.03662049
     atom   13 type  1   force =    -0.01267031    0.00731521   -0.00251751
     atom   14 type  1   force =     0.01088475   -0.00628432   -0.00455738
     atom   15 type  2   force =    -0.01057582    0.00610595    0.01298800
     atom   16 type  2   force =    -0.00509355    0.00294076   -0.02384618
     The ionic contribution  to forces
     atom    1 type  1   force =    -3.74882855    2.16438717   -0.27448848
     atom    2 type  1   force =    -3.38069209    1.95184349    0.26764364
     atom    3 type  2   force =    -0.35799889    0.20669075   -0.00259585
     atom    4 type  2   force =     0.35799889   -0.20669075    0.00259585
     atom    5 type  1   force =    -3.47895800    2.00857734    0.18643027
     atom    6 type  3   force =    -4.55490384    2.62977496   -0.19268355
     atom    7 type  2   force =    -2.21930738    1.28131771   -0.74226774
     atom    8 type  2   force =    -2.14623290    1.23912814    0.38693371
     atom    9 type  3   force =     4.55490384   -2.62977496    0.19268355
     atom   10 type  1   force =     3.47895800   -2.00857734   -0.18643027
     atom   11 type  2   force =     0.33117004   -0.19120111   -1.14457123
     atom   12 type  2   force =    -0.33117004    0.19120111    1.14457123
     atom   13 type  1   force =     3.38069209   -1.95184349   -0.26764364
     atom   14 type  1   force =     3.74882855   -2.16438717    0.27448848
     atom   15 type  2   force =     2.14623290   -1.23912814   -0.38693371
     atom   16 type  2   force =     2.21930738   -1.28131771    0.74226774
     The local contribution  to forces
     atom    1 type  1   force =     3.75519243   -2.16806137    0.27502408
     atom    2 type  1   force =     3.36996969   -1.94565291   -0.27700726
     atom    3 type  2   force =     0.36805158   -0.21249468    0.00231903
     atom    4 type  2   force =    -0.36805158    0.21249468   -0.00231903
     atom    5 type  1   force =     3.45371967   -1.99400596   -0.19107619
     atom    6 type  3   force =     4.56067131   -2.63310476    0.18793274
     atom    7 type  2   force =     2.22745277   -1.28602046    0.69804508
     atom    8 type  2   force =     2.13909002   -1.23500420   -0.36930295
     atom    9 type  3   force =    -4.56067131    2.63310484   -0.18793274
     atom   10 type  1   force =    -3.45371967    1.99400600    0.19107619
     atom   11 type  2   force =    -0.31896078    0.18415209    1.07317170
     atom   12 type  2   force =     0.31896078   -0.18415209   -1.07317170
     atom   13 type  1   force =    -3.36996969    1.94565291    0.27700726
     atom   14 type  1   force =    -3.75519243    2.16806137   -0.27502408
     atom   15 type  2   force =    -2.13909002    1.23500420    0.36930295
     atom   16 type  2   force =    -2.22745277    1.28602046   -0.69804508
     The core correction contribution to forces
     atom    1 type  1   force =    -0.00303808    0.00174268   -0.00009078
     atom    2 type  1   force =     0.00141281   -0.00082884   -0.00038785
     atom    3 type  2   force =     0.00021317   -0.00012299    0.00089869
     atom    4 type  2   force =    -0.00021317    0.00012299   -0.00089869
     atom    5 type  1   force =     0.00015199   -0.00009593   -0.00066927
     atom    6 type  3   force =    -0.00010202    0.00006048    0.00013256
     atom    7 type  2   force =    -0.00243716    0.00140631   -0.00911064
     atom    8 type  2   force =    -0.00343033    0.00198072    0.00547961
     atom    9 type  3   force =     0.00010202   -0.00006048   -0.00013256
     atom   10 type  1   force =    -0.00015199    0.00009593    0.00066927
     atom   11 type  2   force =     0.00089328   -0.00051582   -0.01493838
     atom   12 type  2   force =    -0.00089328    0.00051582    0.01493838
     atom   13 type  1   force =    -0.00141281    0.00082884    0.00038785
     atom   14 type  1   force =     0.00303808   -0.00174268    0.00009078
     atom   15 type  2   force =     0.00343033   -0.00198072   -0.00547961
     atom   16 type  2   force =     0.00243716   -0.00140631    0.00911064
     The Hubbard contrib.    to forces
     atom    1 type  1   force =     0.00000000    0.00000000    0.00000000
     atom    2 type  1   force =     0.00000000    0.00000000    0.00000000
     atom    3 type  2   force =     0.00000000    0.00000000    0.00000000
     atom    4 type  2   force =     0.00000000    0.00000000    0.00000000
     atom    5 type  1   force =     0.00000000    0.00000000    0.00000000
     atom    6 type  3   force =     0.00000000    0.00000000    0.00000000
     atom    7 type  2   force =     0.00000000    0.00000000    0.00000000
     atom    8 type  2   force =     0.00000000    0.00000000    0.00000000
     atom    9 type  3   force =     0.00000000    0.00000000    0.00000000
     atom   10 type  1   force =     0.00000000    0.00000000    0.00000000
     atom   11 type  2   force =     0.00000000    0.00000000    0.00000000
     atom   12 type  2   force =     0.00000000    0.00000000    0.00000000
     atom   13 type  1   force =     0.00000000    0.00000000    0.00000000
     atom   14 type  1   force =     0.00000000    0.00000000    0.00000000
     atom   15 type  2   force =     0.00000000    0.00000000    0.00000000
     atom   16 type  2   force =     0.00000000    0.00000000    0.00000000
     The SCF correction term to forces
     atom    1 type  1   force =     0.00011566   -0.00006678   -0.00003325
     atom    2 type  1   force =     0.00011217   -0.00006475    0.00002143
     atom    3 type  2   force =     0.00001139   -0.00000658   -0.00001336
     atom    4 type  2   force =    -0.00001139    0.00000658    0.00001336
     atom    5 type  1   force =     0.00060424   -0.00034886   -0.00001385
     atom    6 type  3   force =     0.00073840   -0.00042661   -0.00010148
     atom    7 type  2   force =     0.00020381   -0.00011767    0.00000006
     atom    8 type  2   force =     0.00013846   -0.00007995    0.00000602
     atom    9 type  3   force =    -0.00073840    0.00042661    0.00010148
     atom   10 type  1   force =    -0.00060424    0.00034886    0.00001385
     atom   11 type  2   force =    -0.00006425    0.00003709   -0.00000142
     atom   12 type  2   force =     0.00006425   -0.00003709    0.00000142
     atom   13 type  1   force =    -0.00011217    0.00006475   -0.00002143
     atom   14 type  1   force =    -0.00011566    0.00006678    0.00003325
     atom   15 type  2   force =    -0.00013846    0.00007995   -0.00000602
     atom   16 type  2   force =    -0.00020381    0.00011767   -0.00000006

     Total force =     0.090574     Total SCF correction =     0.001642
     Energy error            =      1.1E-02 Ry
     Gradient error          =      5.0E-02 Ry/Bohr

     number of scf cycles    =   2
     number of bfgs steps    =   1

     energy             old  =   -2122.3727391694 Ry
     energy             new  =   -2122.3841725336 Ry

     CASE: energy            _new < energy            _old

     new trust radius        =       0.0704041119 bohr
     new conv_thr            =       0.0000004972 Ry


ATOMIC_POSITIONS (angstrom)
Mn           -5.4766096756        9.4766399195        7.5742073571
Mn           -5.4671195726        9.4711608060       10.0810069513
As           -5.4673916893       11.5762238624       11.3416744290
As           -5.4700204607       13.6826475338       13.8836555710
Mn           -3.6513655445        6.3179287794        5.0403047044
Ni           -3.6422117662        6.3126438430        7.5689183362
As           -3.6318525570        8.4115689004        6.2639426549
As           -3.6453697987       10.5242790333        8.8441769226
Ni           -1.8264943088        3.1594329305        2.5212136638
Mn           -1.8173405305        3.1541479941        5.0498272956
As           -1.8059008534        5.2524492432        6.2379761645
As           -1.8399031966        7.3769864549        8.8972218355
Mn           -0.0015865024        0.0009159676        0.0091250487
Mn            0.0079036006       -0.0045631459        2.5159246429
As           -0.0004342513        2.1051566648        1.2459550774
As           -0.0139514930        4.2178667976        3.8261893451



     Writing config-only to output data dir ./tutorial.save/
     NEW-OLD atomic charge density approx. for the potential

     Check: negative core charge=   -0.000079

     total cpu time spent up to now is        9.1 secs

     Self-consistent Calculation

     iteration #  1     ecut=    40.42 Ry     beta= 0.70
     Davidson diagonalization with overlap
     ethr =  1.00E-06,  avg # of iterations =  6.0

     total cpu time spent up to now is        9.4 secs

     total energy              =   -2122.30433934 Ry
     estimated scf accuracy    <       0.10346648 Ry

     iteration #  2     ecut=    40.42 Ry     beta= 0.70
     Davidson diagonalization with overlap
     ethr =  6.23E-05,  avg # of iterations = 12.0

     total cpu time spent up to now is        9.8 secs

     total energy              =   -2120.82479615 Ry
     estimated scf accuracy    <     132.41587250 Ry

     iteration #  3     ecut=    40.42 Ry     beta= 0.70
     Davidson diagonalization with overlap
     ethr =  6.23E-05,  avg # of iterations = 10.0

     total cpu time spent up to now is       10.1 secs

     total energy              =   -2122.35816653 Ry
     estimated scf accuracy    <       1.96196653 Ry

     iteration #  4     ecut=    40.42 Ry     beta= 0.70
     Davidson diagonalization with overlap
     ethr =  6.23E-05,  avg # of iterations =  4.0

     total cpu time spent up to now is       10.3 secs

     total energy              =   -2122.38875050 Ry
     estimated scf accuracy    <       0.20189614 Ry

     iteration #  5     ecut=    40.42 Ry     beta= 0.70
     Davidson diagonalization with overlap
     ethr =  6.23E-05,  avg # of iterations =  1.0

     total cpu time spent up to now is       10.4 secs

     total energy              =   -2122.39207493 Ry
     estimated scf accuracy    <       0.05464558 Ry

     iteration #  6     ecut=    40.42 Ry     beta= 0.70
     Davidson diagonalization with overlap
     ethr =  3.29E-05,  avg # of iterations =  2.0

     total cpu time spent up to now is       10.6 secs

     total energy              =   -2122.39325749 Ry
     estimated scf accuracy    <       0.00595729 Ry

     iteration #  7     ecut=    40.42 Ry     beta= 0.70
     Davidson diagonalization with overlap
     ethr =  3.59E-06,  avg # of iterations =  2.0

     total cpu time spent up to now is       10.7 secs

     total energy              =   -2122.39381619 Ry
     estimated scf accuracy    <       0.00639358 Ry

     iteration #  8     ecut=    40.42 Ry     beta= 0.70
     Davidson diagonalization with overlap
     ethr =  3.59E-06,  avg # of iterations =  1.0

     total cpu time spent up to now is       10.8 secs

     total energy              =   -2122.39393740 Ry
     estimated scf accuracy    <       0.00108960 Ry

     iteration #  9     ecut=    40.42 Ry     beta= 0.70
     Davidson diagonalization with overlap
     ethr =  6.56E-07,  avg # of iterations =  2.0

     total cpu time spent up to now is       11.0 secs

     total energy              =   -2122.39396544 Ry
     estimated scf accuracy    <       0.00004538 Ry

     iteration # 10     ecut=    40.42 Ry     beta= 0.70
     Davidson diagonalization with overlap
     ethr =  2.73E-08,  avg # of iterations =  5.0

     total cpu time spent up to now is       11.2 secs

     total energy              =   -2122.39397781 Ry
     estimated scf accuracy    <       0.00009034 Ry

     iteration # 11     ecut=    40.42 Ry     beta= 0.70
     Davidson diagonalization with overlap
     ethr =  2.73E-08,  avg # of iterations =  1.0

     total cpu time spent up to now is       11.3 secs

     total energy              =   -2122.39397834 Ry
     estimated scf accuracy    <       0.00002316 Ry

     iteration # 12     ecut=    40.42 Ry     beta= 0.70
     Davidson diagonalization with overlap
     ethr =  1.40E-08,  avg # of iterations =  1.0

     total cpu time spent up to now is       11.5 secs

     total energy              =   -2122.39397840 Ry
     estimated scf accuracy    <       0.00002861 Ry

     iteration # 13     ecut=    40.42 Ry     beta= 0.70
     Davidson diagonalization with overlap
     ethr =  1.40E-08,  avg # of iterations =  1.0

     total cpu time spent up to now is       11.6 secs

     total energy              =   -2122.39397866 Ry
     estimated scf accuracy    <       0.00000909 Ry

     iteration # 14     ecut=    40.42 Ry     beta= 0.70
     Davidson diagonalization with overlap
     ethr =  5.48E-09,  avg # of iterations =  2.0

     total cpu time spent up to now is       11.7 secs

     total energy              =   -2122.39397595 Ry
     estimated scf accuracy    <       0.00007267 Ry

     iteration # 15     ecut=    40.42 Ry     beta= 0.70
     Davidson diagonalization with overlap
     ethr =  5.48E-09,  avg # of iterations =  5.0

     total cpu time spent up to now is       12.0 secs

     total energy              =   -2122.39396038 Ry
     estimated scf accuracy    <       0.00074259 Ry

     iteration # 16     ecut=    40.42 Ry     beta= 0.70
     Davidson diagonalization with overlap
     ethr =  5.48E-09,  avg # of iterations =  4.0

     total cpu time spent up to now is       12.1 secs

     End of self-consistent calculation

          k = 0.0000 0.0000 0.0000 (  6759 PWs)   bands (ev):

   -90.2213 -90.2213 -65.4217 -65.4213 -65.3715 -65.3712 -65.0592 -65.0589
   -50.3345 -50.3206 -50.2829 -50.2676 -49.9799 -49.9455 -34.9619 -34.9606
   -34.6075 -34.6072 -34.3417 -34.3406 -34.1683 -34.1665 -34.1250 -34.1238
   -34.0642 -34.0575 -34.0055 -34.0003 -33.8255 -33.8247 -33.8240 -33.8205
    -0.9994  -0.2088  -0.1974   1.4224   1.8590   2.5989   2.6159   2.6989
     6.5249   6.6050   7.4546   7.4640   8.4286   8.4373   9.0778   9.1185
     9.2586   9.2642   9.3273   9.3443   9.3810   9.4191   9.4443   9.7121
    10.0942  10.1558  10.4112  10.4755  10.4984  10.5399  10.5702  10.9113
    10.9687  11.1191  11.2229  11.5833  11.7383  11.8158  12.0257  12.4635
    12.5567  12.5807  12.7033  12.8170  12.8804  13.0062  13.1674  13.2119
    13.3518  13.4285  13.4468  13.5120  13.5353  13.5518  13.5896  13.6357
    13.6762  14.0722  14.3172  14.5402  14.9299  15.0967  15.1508  15.7511
    16.0432  16.3572  16.5402  16.7481

     the Fermi energy is    13.4547 ev

!    total energy              =   -2122.39397877 Ry
     estimated scf accuracy    <       0.00000046 Ry
     smearing contrib. (-TS)   =      -0.05839933 Ry
     internal energy E=F+TS    =   -2122.33557945 Ry

     The total energy is F=E-TS. E is the sum of the following terms:
     one-electron contribution =   -1348.64889573 Ry
     hartree contribution      =     755.65747463 Ry
     xc contribution           =    -326.07891759 Ry
     ewald contribution        =   -1203.26524075 Ry

     convergence has been achieved in  16 iterations

     Forces acting on atoms (cartesian axes, Ry/au):

     atom    1 type  1   force =    -0.01384646    0.00799426    0.00291251
     atom    2 type  1   force =     0.01134114   -0.00654781   -0.00723483
     atom    3 type  2   force =     0.00068729   -0.00039681   -0.00255387
     atom    4 type  2   force =    -0.00068729    0.00039681    0.00255387
     atom    5 type  1   force =    -0.01006450    0.00581074   -0.00222539
     atom    6 type  3   force =     0.00561055   -0.00323926    0.00030681
     atom    7 type  2   force =     0.01034435   -0.00597231   -0.01774484
     atom    8 type  2   force =     0.00018424   -0.00010637    0.00492645
     atom    9 type  3   force =    -0.00561055    0.00323926   -0.00030681
     atom   10 type  1   force =     0.01006450   -0.00581074    0.00222539
     atom   11 type  2   force =     0.00998996   -0.00576770   -0.03706227
     atom   12 type  2   force =    -0.00998996    0.00576770    0.03706227
     atom   13 type  1   force =    -0.01134114    0.00654781    0.00723483
     atom   14 type  1   force =     0.01384646   -0.00799426   -0.00291251
     atom   15 type  2   force =    -0.00018424    0.00010637   -0.00492645
     atom   16 type  2   force =    -0.01034435    0.00597231    0.01774484
     The non-local contrib.  to forces
     atom    1 type  1   force =    -0.01527115    0.00881680    0.00410029
     atom    2 type  1   force =     0.01706796   -0.00985419   -0.00181766
     atom    3 type  2   force =    -0.00907430    0.00523905   -0.00767938
     atom    4 type  2   force =     0.00907430   -0.00523905    0.00767938
     atom    5 type  1   force =     0.02104643   -0.01215116    0.00075609
     atom    6 type  3   force =    -0.01078335    0.00622577    0.00854063
     atom    7 type  2   force =     0.00302465   -0.00174628    0.02781977
     atom    8 type  2   force =     0.01032724   -0.00596244   -0.01375325
     atom    9 type  3   force =     0.01078335   -0.00622577   -0.00854063
     atom   10 type  1   force =    -0.02104643    0.01215116   -0.00075609
     atom   11 type  2   force =    -0.00128674    0.00074290    0.03492386
     atom   12 type  2   force =     0.00128674   -0.00074290   -0.03492386
     atom   13 type  1   force =    -0.01706796    0.00985419    0.00181766
     atom   14 type  1   force =     0.01527115   -0.00881680   -0.00410029
     atom   15 type  2   force =    -0.01032724    0.00596244    0.01375325
     atom   16 type  2   force =    -0.00302465    0.00174628   -0.02781977
     The ionic contribution  to forces
     atom    1 type  1   force =    -3.55982519    2.05526603   -0.60873493
     atom    2 type  1   force =    -3.39708907    1.96131029    0.59650200
     atom    3 type  2   force =    -0.29420528    0.16985950   -0.01182207
     atom    4 type  2   force =     0.29420528   -0.16985950    0.01182207
     atom    5 type  1   force =    -3.54549075    2.04699004    0.36440758
     atom    6 type  3   force =    -4.39341595    2.53653988   -0.37323960
     atom    7 type  2   force =    -2.29541998    1.32526134   -0.52251626
     atom    8 type  2   force =    -2.13109521    1.23038840    0.24579466
     atom    9 type  3   force =     4.39341595   -2.53653988    0.37323960
     atom   10 type  1   force =     3.54549075   -2.04699004   -0.36440758
     atom   11 type  2   force =     0.23362109   -0.13488120   -0.90177467
     atom   12 type  2   force =    -0.23362109    0.13488120    0.90177467
     atom   13 type  1   force =     3.39708907   -1.96131029   -0.59650200
     atom   14 type  1   force =     3.55982519   -2.05526603    0.60873493
     atom   15 type  2   force =     2.13109522   -1.23038840   -0.24579466
     atom   16 type  2   force =     2.29541998   -1.32526134    0.52251626
     The local contribution  to forces
     atom    1 type  1   force =     3.56460913   -2.05802805    0.60863034
     atom    2 type  1   force =     3.38982399   -1.95711580   -0.60324745
     atom    3 type  2   force =     0.30411752   -0.17558233    0.01542638
     atom    4 type  2   force =    -0.30411752    0.17558233   -0.01542638
     atom    5 type  1   force =     3.51491278   -2.02933582   -0.36722002
     atom    6 type  3   force =     4.40897476   -2.54552272    0.36549368
     atom    7 type  2   force =     2.30368985   -1.33003596    0.48804745
     atom    8 type  2   force =     2.12431074   -1.22647138   -0.23346976
     atom    9 type  3   force =    -4.40897476    2.54552280   -0.36549368
     atom   10 type  1   force =    -3.51491278    2.02933586    0.36722002
     atom   11 type  2   force =    -0.22442949    0.12957443    0.84597814
     atom   12 type  2   force =     0.22442949   -0.12957443   -0.84597814
     atom   13 type  1   force =    -3.38982399    1.95711580    0.60324745
     atom   14 type  1   force =    -3.56460913    2.05802805   -0.60863034
     atom   15 type  2   force =    -2.12431074    1.22647138    0.23346976
     atom   16 type  2   force =    -2.30368985    1.33003596   -0.48804745
     The core correction contribution to forces
     atom    1 type  1   force =    -0.00339768    0.00193033   -0.00006724
     atom    2 type  1   force =     0.00188096   -0.00109114    0.00031487
     atom    3 type  2   force =    -0.00019930    0.00011516    0.00141782
     atom    4 type  2   force =     0.00019930   -0.00011516   -0.00141782
     atom    5 type  1   force =    -0.00122200    0.00069052   -0.00065309
     atom    6 type  3   force =     0.00011099   -0.00006148    0.00012342
     atom    7 type  2   force =    -0.00114696    0.00066188   -0.01130496
     atom    8 type  2   force =    -0.00350486    0.00202367    0.00654054
     atom    9 type  3   force =    -0.00011099    0.00006148   -0.00012342
     atom   10 type  1   force =     0.00122200   -0.00069052    0.00065309
     atom   11 type  2   force =     0.00220558   -0.00127254   -0.01638028
     atom   12 type  2   force =    -0.00220558    0.00127254    0.01638028
     atom   13 type  1   force =    -0.00188096    0.00109114   -0.00031487
     atom   14 type  1   force =     0.00339768   -0.00193033    0.00006724
     atom   15 type  2   force =     0.00350486   -0.00202367   -0.00654054
     atom   16 type  2   force =     0.00114696   -0.00066188    0.01130496
     The Hubbard contrib.    to forces
     atom    1 type  1   force =     0.00000000    0.00000000    0.00000000
     atom    2 type  1   force =     0.00000000    0.00000000    0.00000000
     atom    3 type  2   force =     0.00000000    0.00000000    0.00000000
     atom    4 type  2   force =     0.00000000    0.00000000    0.00000000
     atom    5 type  1   force =     0.00000000    0.00000000    0.00000000
     atom    6 type  3   force =     0.00000000    0.00000000    0.00000000
     atom    7 type  2   force =     0.00000000    0.00000000    0.00000000
     atom    8 type  2   force =     0.00000000    0.00000000    0.00000000
     atom    9 type  3   force =     0.00000000    0.00000000    0.00000000
     atom   10 type  1   force =     0.00000000    0.00000000    0.00000000
     atom   11 type  2   force =     0.00000000    0.00000000    0.00000000
     atom   12 type  2   force =     0.00000000    0.00000000    0.00000000
     atom   13 type  1   force =     0.00000000    0.00000000    0.00000000
     atom   14 type  1   force =     0.00000000    0.00000000    0.00000000
     atom   15 type  2   force =     0.00000000    0.00000000    0.00000000
     atom   16 type  2   force =     0.00000000    0.00000000    0.00000000
     The SCF correction term to forces
     atom    1 type  1   force =     0.00002487   -0.00001437   -0.00101596
     atom    2 type  1   force =    -0.00034493    0.00019916    0.00101341
     atom    3 type  2   force =     0.00004869   -0.00002812    0.00010338
     atom    4 type  2   force =    -0.00004869    0.00002812   -0.00010338
     atom    5 type  1   force =     0.00068254   -0.00039406    0.00048404
     atom    6 type  3   force =     0.00072478   -0.00041949   -0.00061131
     atom    7 type  2   force =     0.00019664   -0.00011353    0.00020916
     atom    8 type  2   force =     0.00014638   -0.00008453   -0.00018573
     atom    9 type  3   force =    -0.00072478    0.00041949    0.00061131
     atom   10 type  1   force =    -0.00068254    0.00039406   -0.00048404
     atom   11 type  2   force =    -0.00012012    0.00006934    0.00019068
     atom   12 type  2   force =     0.00012012   -0.00006934   -0.00019068
     atom   13 type  1   force =     0.00034493   -0.00019916   -0.00101341
     atom   14 type  1   force =    -0.00002487    0.00001437    0.00101596
     atom   15 type  2   force =    -0.00014638    0.00008453    0.00018573
     atom   16 type  2   force =    -0.00019664    0.00011353   -0.00020916

     Total force =     0.073017     Total SCF correction =     0.002959
     Energy error            =      9.8E-03 Ry
     Gradient error          =      3.7E-02 Ry/Bohr

     number of scf cycles    =   3
     number of bfgs steps    =   2

     energy             old  =   -2122.3841725336 Ry
     energy             new  =   -2122.3939787740 Ry

     CASE: energy            _new < energy            _old

     new trust radius        =       0.1056061679 bohr
     new conv_thr            =       0.0000003706 Ry


ATOMIC_POSITIONS (angstrom)
Mn           -5.4909365292        9.4849115323        7.5788391678
Mn           -5.4568988280        9.4652598564       10.0718994314
As           -5.4663680240       11.5756328489       11.3364353505
As           -5.4710441260       13.6832385473       13.8888946495
Mn           -3.6617102355        6.3239012895        5.0368786591
Ni           -3.6362584250        6.3092066799        7.5695546788
As           -3.6185266374        8.4038751772        6.2352821964
As           -3.6450924475       10.5241189045        8.8532366633
Ni           -1.8324476500        3.1628700936        2.5205773212
Mn           -1.8069958395        3.1481754840        5.0532533409
As           -1.7918794017        5.2443539543        6.1844885134
As           -1.8539246483        7.3850817438        8.9507094866
Mn           -0.0118072470        0.0068169172        0.0182325686
Mn            0.0222304542       -0.0128347587        2.5112928322
As           -0.0007116025        2.1053167936        1.2368953367
As           -0.0272774126        4.2255605208        3.8548498036



     Writing config-only to output data dir ./tutorial.save/
     NEW-OLD atomic charge density approx. for the potential

     Check: negative core charge=   -0.000078

     total cpu time spent up to now is       12.4 secs

     Self-consistent Calculation

     iteration #  1     ecut=    40.42 Ry     beta= 0.70
     Davidson diagonalization with overlap
     ethr =  1.00E-06,  avg # of iterations =  8.0

     total cpu time spent up to now is       12.8 secs

     total energy              =   -2122.24597046 Ry
     estimated scf accuracy    <       0.19117590 Ry

     iteration #  2     ecut=    40.42 Ry     beta= 0.70
     Davidson diagonalization with overlap
     ethr =  1.15E-04,  avg # of iterations = 14.0

     total cpu time spent up to now is       13.2 secs

     total energy              =   -2119.74728557 Ry
     estimated scf accuracy    <     195.88351418 Ry

     iteration #  3     ecut=    40.42 Ry     beta= 0.70
     Davidson diagonalization with overlap
     ethr =  1.15E-04,  avg # of iterations = 12.0

     total cpu time spent up to now is       13.6 secs

     total energy              =   -2122.30706333 Ry
     estimated scf accuracy    <       8.23739259 Ry

     iteration #  4     ecut=    40.42 Ry     beta= 0.70
     Davidson diagonalization with overlap
     ethr =  1.15E-04,  avg # of iterations =  5.0

     total cpu time spent up to now is       13.7 secs

     total energy              =   -2122.39878688 Ry
     estimated scf accuracy    <       0.04458109 Ry

     iteration #  5     ecut=    40.42 Ry     beta= 0.70
     Davidson diagonalization with overlap
     ethr =  2.69E-05,  avg # of iterations =  2.0

     total cpu time spent up to now is       13.9 secs

     total energy              =   -2122.39618578 Ry
     estimated scf accuracy    <       0.22097699 Ry

     iteration #  6     ecut=    40.42 Ry     beta= 0.70
     Davidson diagonalization with overlap
     ethr =  2.69E-05,  avg # of iterations =  2.0

     total cpu time spent up to now is       14.0 secs

     total energy              =   -2122.40221199 Ry
     estimated scf accuracy    <       0.09672199 Ry

     iteration #  7     ecut=    40.42 Ry     beta= 0.70
     Davidson diagonalization with overlap
     ethr =  2.69E-05,  avg # of iterations =  1.0

     total cpu time spent up to now is       14.2 secs

     total energy              =   -2122.40515433 Ry
     estimated scf accuracy    <       0.03133348 Ry

     iteration #  8     ecut=    40.42 Ry     beta= 0.70
     Davidson diagonalization with overlap
     ethr =  1.89E-05,  avg # of iterations =  2.0

     total cpu time spent up to now is       14.3 secs

     total energy              =   -2122.40542943 Ry
     estimated scf accuracy    <       0.00133769 Ry

     iteration #  9     ecut=    40.42 Ry     beta= 0.70
     Davidson diagonalization with overlap
     ethr =  8.06E-07,  avg # of iterations =  7.0

     total cpu time spent up to now is       14.5 secs

     total energy              =   -2122.40554749 Ry
     estimated scf accuracy    <       0.00067141 Ry

     iteration # 10     ecut=    40.42 Ry     beta= 0.70
     Davidson diagonalization with overlap
     ethr =  4.04E-07,  avg # of iterations =  2.0

     total cpu time spent up to now is       14.6 secs

     total energy              =   -2122.40558967 Ry
     estimated scf accuracy    <       0.00062865 Ry

     iteration # 11     ecut=    40.42 Ry     beta= 0.70
     Davidson diagonalization with overlap
     ethr =  3.79E-07,  avg # of iterations =  1.0

     total cpu time spent up to now is       14.8 secs

     total energy              =   -2122.40560241 Ry
     estimated scf accuracy    <       0.00010887 Ry

     iteration # 12     ecut=    40.42 Ry     beta= 0.70
     Davidson diagonalization with overlap
     ethr =  6.56E-08,  avg # of iterations =  2.0

     total cpu time spent up to now is       14.9 secs

     total energy              =   -2122.40559395 Ry
     estimated scf accuracy    <       0.00008764 Ry

     iteration # 13     ecut=    40.42 Ry     beta= 0.70
     Davidson diagonalization with overlap
     ethr =  5.28E-08,  avg # of iterations =  4.0

     total cpu time spent up to now is       15.1 secs

     total energy              =   -2122.40556874 Ry
     estimated scf accuracy    <       0.00068887 Ry

     iteration # 14     ecut=    40.42 Ry     beta= 0.70
     Davidson diagonalization with overlap
     ethr =  5.28E-08,  avg # of iterations =  4.0

     total cpu time spent up to now is       15.3 secs

     total energy              =   -2122.40560446 Ry
     estimated scf accuracy    <       0.00004730 Ry

     iteration # 15     ecut=    40.42 Ry     beta= 0.70
     Davidson diagonalization with overlap
     ethr =  2.85E-08,  avg # of iterations =  3.0

     total cpu time spent up to now is       15.4 secs

     total energy              =   -2122.40559069 Ry
     estimated scf accuracy    <       0.00040605 Ry

     iteration # 16     ecut=    40.42 Ry     beta= 0.70
     Davidson diagonalization with overlap
     ethr =  2.85E-08,  avg # of iterations =  4.0

     total cpu time spent up to now is       15.6 secs

     total energy              =   -2122.40560154 Ry
     estimated scf accuracy    <       0.00019811 Ry

     iteration # 17     ecut=    40.42 Ry     beta= 0.70
     Davidson diagonalization with overlap
     ethr =  2.85E-08,  avg # of iterations =  1.0

     total cpu time spent up to now is       15.7 secs

     total energy              =   -2122.40560751 Ry
     estimated scf accuracy    <       0.00000200 Ry

     iteration # 18     ecut=    40.42 Ry     beta= 0.70
     Davidson diagonalization with overlap
     ethr =  1.21E-09,  avg # of iterations =  5.0

     total cpu time spent up to now is       15.9 secs

     total energy              =   -2122.40560782 Ry
     estimated scf accuracy    <       0.00000238 Ry

     iteration # 19     ecut=    40.42 Ry     beta= 0.70
     Davidson diagonalization with overlap
     ethr =  1.21E-09,  avg # of iterations =  2.0

     total cpu time spent up to now is       16.1 secs

     total energy              =   -2122.40560787 Ry
     estimated scf accuracy    <       0.00000136 Ry

     iteration # 20     ecut=    40.42 Ry     beta= 0.70
     Davidson diagonalization with overlap
     ethr =  8.21E-10,  avg # of iterations =  1.0

     total cpu time spent up to now is       16.2 secs

     End of self-consistent calculation

          k = 0.0000 0.0000 0.0000 (  6759 PWs)   bands (ev):

   -90.1199 -90.1198 -65.4515 -65.4512 -65.4053 -65.4050 -65.0951 -65.0948
   -50.2153 -50.2065 -50.2031 -50.1897 -49.8687 -49.8383 -34.9940 -34.9927
   -34.6388 -34.6385 -34.3463 -34.3454 -34.2044 -34.2027 -34.1533 -34.1519
   -34.0914 -34.0845 -34.0382 -34.0330 -33.8945 -33.8931 -33.8705 -33.8662
    -1.0136  -0.2183  -0.2154   1.4339   1.8225   2.5956   2.6125   2.7339
     6.5236   6.6451   7.4411   7.4578   8.4083   8.4299   9.0851   9.1178
     9.2550   9.2559   9.2945   9.3392   9.3843   9.4179   9.4453   9.7819
    10.1193  10.1847  10.4016  10.4790  10.4883  10.5863  10.5998  10.9369
    10.9889  11.1366  11.2366  11.6605  11.7114  11.9093  12.0040  12.4727
    12.5009  12.5805  12.6798  12.8169  12.8366  12.9968  13.1365  13.2026
    13.3031  13.3817  13.4053  13.4554  13.4652  13.5307  13.5625  13.6692
    13.7593  14.0919  14.3463  14.5264  14.9336  15.1077  15.1266  15.6753
    16.0259  16.3602  16.5067  16.8534

     the Fermi energy is    13.4171 ev

!    total energy              =   -2122.40560770 Ry
     estimated scf accuracy    <       0.00000021 Ry
     smearing contrib. (-TS)   =      -0.05504091 Ry
     internal energy E=F+TS    =   -2122.35056679 Ry

     The total energy is F=E-TS. E is the sum of the following terms:
     one-electron contribution =   -1348.42631866 Ry
     hartree contribution      =     755.55746926 Ry
     xc contribution           =    -326.10239760 Ry
     ewald contribution        =   -1203.37931979 Ry

     convergence has been achieved in  20 iterations

     Forces acting on atoms (cartesian axes, Ry/au):

     atom    1 type  1   force =    -0.02597269    0.01499534   -0.00141394
     atom    2 type  1   force =     0.02627053   -0.01516730   -0.00887631
     atom    3 type  2   force =    -0.00130525    0.00075359    0.00123577
     atom    4 type  2   force =     0.00130525   -0.00075359   -0.00123577
     atom    5 type  1   force =    -0.02343553    0.01353051   -0.00018768
     atom    6 type  3   force =     0.00986057   -0.00569300    0.00055452
     atom    7 type  2   force =     0.00760201   -0.00438902    0.00111150
     atom    8 type  2   force =     0.00176409   -0.00101850   -0.00349936
     atom    9 type  3   force =    -0.00986057    0.00569300   -0.00055452
     atom   10 type  1   force =     0.02343553   -0.01353051    0.00018768
     atom   11 type  2   force =     0.00071151   -0.00041079   -0.01883796
     atom   12 type  2   force =    -0.00071151    0.00041079    0.01883796
     atom   13 type  1   force =    -0.02627053    0.01516730    0.00887631
     atom   14 type  1   force =     0.02597269   -0.01499534    0.00141394
     atom   15 type  2   force =    -0.00176409    0.00101850    0.00349936
     atom   16 type  2   force =    -0.00760201    0.00438902   -0.00111150
     The non-local contrib.  to forces
     atom    1 type  1   force =    -0.02533412    0.01462666   -0.00256002
     atom    2 type  1   force =     0.02802305   -0.01617911   -0.01647976
     atom    3 type  2   force =    -0.00961488    0.00555115   -0.01175779
     atom    4 type  2   force =     0.00961488   -0.00555115    0.01175779
     atom    5 type  1   force =     0.02024463   -0.01168824    0.00163283
     atom    6 type  3   force =    -0.02565823    0.01481379    0.01443299
     atom    7 type  2   force =     0.00034128   -0.00019704    0.03492345
     atom    8 type  2   force =     0.01045321   -0.00603516   -0.01716102
     atom    9 type  3   force =     0.02565823   -0.01481379   -0.01443299
     atom   10 type  1   force =    -0.02024463    0.01168824   -0.00163283
     atom   11 type  2   force =    -0.00490308    0.00283079    0.03064943
     atom   12 type  2   force =     0.00490308   -0.00283079   -0.03064943
     atom   13 type  1   force =    -0.02802305    0.01617911    0.01647976
     atom   14 type  1   force =     0.02533412   -0.01462666    0.00256002
     atom   15 type  2   force =    -0.01045321    0.00603516    0.01716102
     atom   16 type  2   force =    -0.00034128    0.00019704   -0.03492345
     The ionic contribution  to forces
     atom    1 type  1   force =    -3.22475695    1.86181429   -1.13365468
     atom    2 type  1   force =    -3.49111056    2.01559362    1.12564761
     atom    3 type  2   force =    -0.19407181    0.11204741   -0.14017850
     atom    4 type  2   force =     0.19407181   -0.11204741    0.14017850
     atom    5 type  1   force =    -3.57746133    2.06544826    0.61309909
     atom    6 type  3   force =    -4.12302860    2.38043167   -0.62045613
     atom    7 type  2   force =    -2.40976135    1.39127636   -0.13756230
     atom    8 type  2   force =    -2.11850389    1.22311879   -0.02467402
     atom    9 type  3   force =     4.12302860   -2.38043167    0.62045613
     atom   10 type  1   force =     3.57746133   -2.06544826   -0.61309909
     atom   11 type  2   force =     0.07199576   -0.04156677   -0.59717386
     atom   12 type  2   force =    -0.07199576    0.04156677    0.59717386
     atom   13 type  1   force =     3.49111056   -2.01559362   -1.12564761
     atom   14 type  1   force =     3.22475695   -1.86181429    1.13365468
     atom   15 type  2   force =     2.11850390   -1.22311879    0.02467402
     atom   16 type  2   force =     2.40976134   -1.39127636    0.13756230
     The local contribution  to forces
     atom    1 type  1   force =     3.22900268   -1.86426557    1.13398838
     atom    2 type  1   force =     3.48693061   -2.01318033   -1.12066714
     atom    3 type  2   force =     0.20330345   -0.11737730    0.14955264
     atom    4 type  2   force =    -0.20330345    0.11737730   -0.14955264
     atom    5 type  1   force =     3.53842047   -2.04290799   -0.61401555
     atom    6 type  3   force =     4.15843704   -2.40087470    0.60643275
     atom    7 type  2   force =     2.41665987   -1.39525923    0.11891276
     atom    8 type  2   force =     2.11355711   -1.22026277    0.02930861
     atom    9 type  3   force =    -4.15843704    2.40087478   -0.60643275
     atom   10 type  1   force =    -3.53842047    2.04290802    0.61401555
     atom   11 type  2   force =    -0.07074129    0.04084251    0.56550160
     atom   12 type  2   force =     0.07074129   -0.04084251   -0.56550160
     atom   13 type  1   force =    -3.48693061    2.01318033    1.12066714
     atom   14 type  1   force =    -3.22900268    1.86426557   -1.13398838
     atom   15 type  2   force =    -2.11355711    1.22026277   -0.02930861
     atom   16 type  2   force =    -2.41665987    1.39525923   -0.11891276
     The core correction contribution to forces
     atom    1 type  1   force =    -0.00416347    0.00232513    0.00087610
     atom    2 type  1   force =     0.00318463   -0.00180609    0.00256572
     atom    3 type  2   force =    -0.00084059    0.00048541    0.00357018
     atom    4 type  2   force =     0.00084059   -0.00048541   -0.00357018
     atom    5 type  1   force =    -0.00421596    0.00240087   -0.00101302
     atom    6 type  3   force =     0.00064115   -0.00036503    0.00023248
     atom    7 type  2   force =     0.00066997   -0.00038636   -0.01519922
     atom    8 type  2   force =    -0.00338583    0.00195483    0.00906293
     atom    9 type  3   force =    -0.00064115    0.00036503   -0.00023248
     atom   10 type  1   force =     0.00421596   -0.00240087    0.00101302
     atom   11 type  2   force =     0.00431759   -0.00249061   -0.01784087
     atom   12 type  2   force =    -0.00431759    0.00249061    0.01784087
     atom   13 type  1   force =    -0.00318463    0.00180609   -0.00256572
     atom   14 type  1   force =     0.00416347   -0.00232513   -0.00087610
     atom   15 type  2   force =     0.00338583   -0.00195483   -0.00906293
     atom   16 type  2   force =    -0.00066997    0.00038636    0.01519922
     The Hubbard contrib.    to forces
     atom    1 type  1   force =     0.00000000    0.00000000    0.00000000
     atom    2 type  1   force =     0.00000000    0.00000000    0.00000000
     atom    3 type  2   force =     0.00000000    0.00000000    0.00000000
     atom    4 type  2   force =     0.00000000    0.00000000    0.00000000
     atom    5 type  1   force =     0.00000000    0.00000000    0.00000000
     atom    6 type  3   force =     0.00000000    0.00000000    0.00000000
     atom    7 type  2   force =     0.00000000    0.00000000    0.00000000
     atom    8 type  2   force =     0.00000000    0.00000000    0.00000000
     atom    9 type  3   force =     0.00000000    0.00000000    0.00000000
     atom   10 type  1   force =     0.00000000    0.00000000    0.00000000
     atom   11 type  2   force =     0.00000000    0.00000000    0.00000000
     atom   12 type  2   force =     0.00000000    0.00000000    0.00000000
     atom   13 type  1   force =     0.00000000    0.00000000    0.00000000
     atom   14 type  1   force =     0.00000000    0.00000000    0.00000000
     atom   15 type  2   force =     0.00000000    0.00000000    0.00000000
     atom   16 type  2   force =     0.00000000    0.00000000    0.00000000
     The SCF correction term to forces
     atom    1 type  1   force =    -0.00075489    0.00043584   -0.00006372
     atom    2 type  1   force =    -0.00074310    0.00042903    0.00005727
     atom    3 type  2   force =    -0.00008138    0.00004699    0.00004925
     atom    4 type  2   force =     0.00008138   -0.00004699   -0.00004925
     atom    5 type  1   force =    -0.00043772    0.00025272    0.00010897
     atom    6 type  3   force =    -0.00052858    0.00030514   -0.00008757
     atom    7 type  2   force =    -0.00030758    0.00017758    0.00003682
     atom    8 type  2   force =    -0.00035649    0.00020582   -0.00003585
     atom    9 type  3   force =     0.00052858   -0.00030514    0.00008757
     atom   10 type  1   force =     0.00043772   -0.00025272   -0.00010897
     atom   11 type  2   force =     0.00004346   -0.00002509    0.00002575
     atom   12 type  2   force =    -0.00004346    0.00002509   -0.00002575
     atom   13 type  1   force =     0.00074310   -0.00042903   -0.00005727
     atom   14 type  1   force =     0.00075489   -0.00043584    0.00006372
     atom   15 type  2   force =     0.00035649   -0.00020582    0.00003585
[...]

     total energy              =   -2122.50044761 Ry
     estimated scf accuracy    <       0.00067189 Ry

     iteration # 46     ecut=    40.42 Ry     beta= 0.70
     Davidson diagonalization with overlap
     ethr =  1.18E-07,  avg # of iterations =  5.0

     total cpu time spent up to now is       40.2 secs

     total energy              =   -2122.50062797 Ry
     estimated scf accuracy    <       0.00017713 Ry

     iteration # 47     ecut=    40.42 Ry     beta= 0.70
     Davidson diagonalization with overlap
     ethr =  1.07E-07,  avg # of iterations =  2.0

     total cpu time spent up to now is       40.4 secs

     total energy              =   -2122.50063107 Ry
     estimated scf accuracy    <       0.00007647 Ry

     iteration # 48     ecut=    40.42 Ry     beta= 0.70
     Davidson diagonalization with overlap
     ethr =  4.61E-08,  avg # of iterations =  1.0

     total cpu time spent up to now is       40.5 secs

     total energy              =   -2122.50061353 Ry
     estimated scf accuracy    <       0.00005296 Ry

     iteration # 49     ecut=    40.42 Ry     beta= 0.70
     Davidson diagonalization with overlap
     ethr =  3.19E-08,  avg # of iterations =  4.0

     total cpu time spent up to now is       40.7 secs

     total energy              =   -2122.50061586 Ry
     estimated scf accuracy    <       0.00002902 Ry

     iteration # 50     ecut=    40.42 Ry     beta= 0.70
     Davidson diagonalization with overlap
     ethr =  1.75E-08,  avg # of iterations =  4.0

     total cpu time spent up to now is       40.9 secs

     total energy              =   -2122.50064536 Ry
     estimated scf accuracy    <       0.00018128 Ry

     iteration # 51     ecut=    40.42 Ry     beta= 0.70
     Davidson diagonalization with overlap
     ethr =  1.75E-08,  avg # of iterations =  4.0

     total cpu time spent up to now is       41.0 secs

     total energy              =   -2122.50067242 Ry
     estimated scf accuracy    <       0.00041539 Ry

     iteration # 52     ecut=    40.42 Ry     beta= 0.70
     Davidson diagonalization with overlap
     ethr =  1.75E-08,  avg # of iterations =  5.0

     total cpu time spent up to now is       41.3 secs

     total energy              =   -2122.50028438 Ry
     estimated scf accuracy    <       0.00318716 Ry

     iteration # 53     ecut=    40.42 Ry     beta= 0.70
     Davidson diagonalization with overlap
     ethr =  1.75E-08,  avg # of iterations =  6.0

     total cpu time spent up to now is       41.5 secs

     total energy              =   -2122.50060241 Ry
     estimated scf accuracy    <       0.00029477 Ry

     iteration # 54     ecut=    40.42 Ry     beta= 0.70
     Davidson diagonalization with overlap
     ethr =  1.75E-08,  avg # of iterations =  5.0

     total cpu time spent up to now is       41.7 secs

     total energy              =   -2122.50060179 Ry
     estimated scf accuracy    <       0.00028549 Ry

     iteration # 55     ecut=    40.42 Ry     beta= 0.70
     Davidson diagonalization with overlap
     ethr =  1.75E-08,  avg # of iterations =  5.0

     total cpu time spent up to now is       41.9 secs

     total energy              =   -2122.50062252 Ry
     estimated scf accuracy    <       0.00011151 Ry

     iteration # 56     ecut=    40.42 Ry     beta= 0.70
     Davidson diagonalization with overlap
     ethr =  1.75E-08,  avg # of iterations =  2.0

     total cpu time spent up to now is       42.0 secs

     total energy              =   -2122.50062123 Ry
     estimated scf accuracy    <       0.00011897 Ry

     iteration # 57     ecut=    40.42 Ry     beta= 0.70
     Davidson diagonalization with overlap
     ethr =  1.75E-08,  avg # of iterations =  2.0

     total cpu time spent up to now is       42.2 secs

     total energy              =   -2122.50061429 Ry
     estimated scf accuracy    <       0.00010799 Ry

     iteration # 58     ecut=    40.42 Ry     beta= 0.70
     Davidson diagonalization with overlap
     ethr =  1.75E-08,  avg # of iterations =  4.0

     total cpu time spent up to now is       42.4 secs

     total energy              =   -2122.50061567 Ry
     estimated scf accuracy    <       0.00016377 Ry

     iteration # 59     ecut=    40.42 Ry     beta= 0.70
     Davidson diagonalization with overlap
     ethr =  1.75E-08,  avg # of iterations =  2.0

     total cpu time spent up to now is       42.5 secs

     total energy              =   -2122.50061400 Ry
     estimated scf accuracy    <       0.00018141 Ry

     iteration # 60     ecut=    40.42 Ry     beta= 0.70
     Davidson diagonalization with overlap
     ethr =  1.75E-08,  avg # of iterations =  2.0

     total cpu time spent up to now is       42.6 secs

     total energy              =   -2122.50061460 Ry
     estimated scf accuracy    <       0.00021511 Ry

     iteration # 61     ecut=    40.42 Ry     beta= 0.70
     Davidson diagonalization with overlap
     ethr =  1.75E-08,  avg # of iterations =  4.0

     total cpu time spent up to now is       42.8 secs

     total energy              =   -2122.50049891 Ry
     estimated scf accuracy    <       0.00013633 Ry

     iteration # 62     ecut=    40.42 Ry     beta= 0.70
     Davidson diagonalization with overlap
     ethr =  1.75E-08,  avg # of iterations =  5.0

     total cpu time spent up to now is       43.0 secs

     total energy              =   -2122.50037308 Ry
     estimated scf accuracy    <       0.00135578 Ry

     iteration # 63     ecut=    40.42 Ry     beta= 0.70
     Davidson diagonalization with overlap
     ethr =  1.75E-08,  avg # of iterations =  7.0

     total cpu time spent up to now is       43.3 secs

     total energy              =   -2122.49634385 Ry
     estimated scf accuracy    <       0.08894413 Ry

     iteration # 64     ecut=    40.42 Ry     beta= 0.70
     Davidson diagonalization with overlap
     ethr =  1.75E-08,  avg # of iterations =  8.0

     total cpu time spent up to now is       43.6 secs

     total energy              =   -2122.50059585 Ry
     estimated scf accuracy    <       0.00027020 Ry

     iteration # 65     ecut=    40.42 Ry     beta= 0.70
     Davidson diagonalization with overlap
     ethr =  1.75E-08,  avg # of iterations =  5.0

     total cpu time spent up to now is       43.8 secs

     total energy              =   -2122.50049947 Ry
     estimated scf accuracy    <       0.00012908 Ry

     iteration # 66     ecut=    40.42 Ry     beta= 0.70
     Davidson diagonalization with overlap
     ethr =  1.75E-08,  avg # of iterations =  5.0

     total cpu time spent up to now is       44.0 secs

     total energy              =   -2122.50055514 Ry
     estimated scf accuracy    <       0.00083077 Ry

     iteration # 67     ecut=    40.42 Ry     beta= 0.70
     Davidson diagonalization with overlap
     ethr =  1.75E-08,  avg # of iterations =  5.0

     total cpu time spent up to now is       44.2 secs

     total energy              =   -2122.50060978 Ry
     estimated scf accuracy    <       0.00014067 Ry

     iteration # 68     ecut=    40.42 Ry     beta= 0.70
     Davidson diagonalization with overlap
     ethr =  1.75E-08,  avg # of iterations =  4.0

     total cpu time spent up to now is       44.4 secs

     total energy              =   -2122.50061210 Ry
     estimated scf accuracy    <       0.00022371 Ry

     iteration # 69     ecut=    40.42 Ry     beta= 0.70
     Davidson diagonalization with overlap
     ethr =  1.75E-08,  avg # of iterations =  2.0

     total cpu time spent up to now is       44.5 secs

     total energy              =   -2122.50061210 Ry
     estimated scf accuracy    <       0.00025149 Ry

     iteration # 70     ecut=    40.42 Ry     beta= 0.70
     Davidson diagonalization with overlap
     ethr =  1.75E-08,  avg # of iterations =  1.0

     total cpu time spent up to now is       44.7 secs

     total energy              =   -2122.50060758 Ry
     estimated scf accuracy    <       0.00025963 Ry

     iteration # 71     ecut=    40.42 Ry     beta= 0.70
     Davidson diagonalization with overlap
     ethr =  1.75E-08,  avg # of iterations =  4.0

     total cpu time spent up to now is       44.8 secs

     total energy              =   -2122.50060978 Ry
     estimated scf accuracy    <       0.00034438 Ry

     iteration # 72     ecut=    40.42 Ry     beta= 0.70
     Davidson diagonalization with overlap
     ethr =  1.75E-08,  avg # of iterations =  1.0

     total cpu time spent up to now is       45.0 secs

     total energy              =   -2122.50042290 Ry
     estimated scf accuracy    <       0.00031865 Ry

     iteration # 73     ecut=    40.42 Ry     beta= 0.70
     Davidson diagonalization with overlap
     ethr =  1.75E-08,  avg # of iterations =  6.0

     total cpu time spent up to now is       45.2 secs

     total energy              =   -2122.50070078 Ry
     estimated scf accuracy    <       0.00089566 Ry

     iteration # 74     ecut=    40.42 Ry     beta= 0.70
     Davidson diagonalization with overlap
     ethr =  1.75E-08,  avg # of iterations =  4.0

     total cpu time spent up to now is       45.4 secs

     total energy              =   -2122.50080652 Ry
     estimated scf accuracy    <       0.00161395 Ry

     iteration # 75     ecut=    40.42 Ry     beta= 0.70
     Davidson diagonalization with overlap
     ethr =  1.75E-08,  avg # of iterations =  5.0

     total cpu time spent up to now is       45.6 secs

     total energy              =   -2122.49973320 Ry
     estimated scf accuracy    <       0.00766477 Ry

     iteration # 76     ecut=    40.42 Ry     beta= 0.70
     Davidson diagonalization with overlap
     ethr =  1.75E-08,  avg # of iterations =  7.0

     total cpu time spent up to now is       45.9 secs

     total energy              =   -2122.50060939 Ry
     estimated scf accuracy    <       0.00023894 Ry

     iteration # 77     ecut=    40.42 Ry     beta= 0.70
     Davidson diagonalization with overlap
     ethr =  1.75E-08,  avg # of iterations =  2.0

     total cpu time spent up to now is       46.0 secs

     total energy              =   -2122.50060673 Ry
     estimated scf accuracy    <       0.00030491 Ry

     iteration # 78     ecut=    40.42 Ry     beta= 0.70
     Davidson diagonalization with overlap
     ethr =  1.75E-08,  avg # of iterations =  4.0

     total cpu time spent up to now is       46.2 secs

     total energy              =   -2122.50060641 Ry
     estimated scf accuracy    <       0.00039646 Ry

     iteration # 79     ecut=    40.42 Ry     beta= 0.70
     Davidson diagonalization with overlap
     ethr =  1.75E-08,  avg # of iterations =  1.0

     total cpu time spent up to now is       46.3 secs

     total energy              =   -2122.50058627 Ry
     estimated scf accuracy    <       0.00043700 Ry

     iteration # 80     ecut=    40.42 Ry     beta= 0.70
     Davidson diagonalization with overlap
     ethr =  1.75E-08,  avg # of iterations =  5.0

     total cpu time spent up to now is       46.5 secs

     total energy              =   -2122.50059576 Ry
     estimated scf accuracy    <       0.00077007 Ry

     iteration # 81     ecut=    40.42 Ry     beta= 0.70
     Davidson diagonalization with overlap
     ethr =  1.75E-08,  avg # of iterations =  1.0

     total cpu time spent up to now is       46.6 secs

     total energy              =   -2122.50058259 Ry
     estimated scf accuracy    <       0.00079063 Ry

     iteration # 82     ecut=    40.42 Ry     beta= 0.70
     Davidson diagonalization with overlap
     ethr =  1.75E-08,  avg # of iterations =  4.0

     total cpu time spent up to now is       46.8 secs

     total energy              =   -2122.50058075 Ry
     estimated scf accuracy    <       0.00094498 Ry

     iteration # 83     ecut=    40.42 Ry     beta= 0.70
     Davidson diagonalization with overlap
     ethr =  1.75E-08,  avg # of iterations =  2.0

     total cpu time spent up to now is       46.9 secs

     total energy              =   -2122.50057757 Ry
     estimated scf accuracy    <       0.00098950 Ry

     iteration # 84     ecut=    40.42 Ry     beta= 0.70
     Davidson diagonalization with overlap
     ethr =  1.75E-08,  avg # of iterations =  2.0

     total cpu time spent up to now is       47.1 secs

     total energy              =   -2122.50045078 Ry
     estimated scf accuracy    <       0.00100763 Ry

     iteration # 85     ecut=    40.42 Ry     beta= 0.70
     Davidson diagonalization with overlap
     ethr =  1.75E-08,  avg # of iterations =  5.0

     total cpu time spent up to now is       47.3 secs

     total energy              =   -2122.50062281 Ry
     estimated scf accuracy    <       0.00015421 Ry

     iteration # 86     ecut=    40.42 Ry     beta= 0.70
     Davidson diagonalization with overlap
     ethr =  1.75E-08,  avg # of iterations =  4.0

     total cpu time spent up to now is       47.5 secs

     total energy              =   -2122.50062609 Ry
     estimated scf accuracy    <       0.00016794 Ry

     iteration # 87     ecut=    40.42 Ry     beta= 0.70
     Davidson diagonalization with overlap
     ethr =  1.75E-08,  avg # of iterations =  4.0

     total cpu time spent up to now is       47.6 secs

     total energy              =   -2122.50065759 Ry
     estimated scf accuracy    <       0.00034836 Ry

     iteration # 88     ecut=    40.42 Ry     beta= 0.70
     Davidson diagonalization with overlap
     ethr =  1.75E-08,  avg # of iterations =  5.0

     total cpu time spent up to now is       47.8 secs

     total energy              =   -2122.50075666 Ry
     estimated scf accuracy    <       0.00126043 Ry

     iteration # 89     ecut=    40.42 Ry     beta= 0.70
     Davidson diagonalization with overlap
     ethr =  1.75E-08,  avg # of iterations =  5.0

     total cpu time spent up to now is       48.1 secs

     total energy              =   -2122.49939901 Ry
     estimated scf accuracy    <       0.01289982 Ry

     iteration # 90     ecut=    40.42 Ry     beta= 0.70
     Davidson diagonalization with overlap
     ethr =  1.75E-08,  avg # of iterations =  7.0

     total cpu time spent up to now is       48.3 secs

     total energy              =   -2122.50061471 Ry
     estimated scf accuracy    <       0.00021013 Ry

     iteration # 91     ecut=    40.42 Ry     beta= 0.70
     Davidson diagonalization with overlap
     ethr =  1.75E-08,  avg # of iterations =  4.0

     total cpu time spent up to now is       48.5 secs

     total energy              =   -2122.50048715 Ry
     estimated scf accuracy    <       0.00013285 Ry

     iteration # 92     ecut=    40.42 Ry     beta= 0.70
     Davidson diagonalization with overlap
     ethr =  1.75E-08,  avg # of iterations =  5.0

     total cpu time spent up to now is       48.7 secs

     total energy              =   -2122.50057231 Ry
     estimated scf accuracy    <       0.00089516 Ry

     iteration # 93     ecut=    40.42 Ry     beta= 0.70
     Davidson diagonalization with overlap
     ethr =  1.75E-08,  avg # of iterations =  5.0

     total cpu time spent up to now is       48.9 secs

     total energy              =   -2122.50060942 Ry
     estimated scf accuracy    <       0.00031753 Ry

     iteration # 94     ecut=    40.42 Ry     beta= 0.70
     Davidson diagonalization with overlap
     ethr =  1.75E-08,  avg # of iterations =  1.0

     total cpu time spent up to now is       49.0 secs

     total energy              =   -2122.50060668 Ry
     estimated scf accuracy    <       0.00033399 Ry

     iteration # 95     ecut=    40.42 Ry     beta= 0.70
     Davidson diagonalization with overlap
     ethr =  1.75E-08,  avg # of iterations =  2.0

     total cpu time spent up to now is       49.2 secs

     total energy              =   -2122.50059652 Ry
     estimated scf accuracy    <       0.00040316 Ry

     iteration # 96     ecut=    40.42 Ry     beta= 0.70
     Davidson diagonalization with overlap
     ethr =  1.75E-08,  avg # of iterations =  4.0

     total cpu time spent up to now is       49.4 secs

     total energy              =   -2122.50059148 Ry
     estimated scf accuracy    <       0.00062604 Ry

     iteration # 97     ecut=    40.42 Ry     beta= 0.70
     Davidson diagonalization with overlap
     ethr =  1.75E-08,  avg # of iterations =  4.0

     total cpu time spent up to now is       49.5 secs

     total energy              =   -2122.50059363 Ry
     estimated scf accuracy    <       0.00079206 Ry

     iteration # 98     ecut=    40.42 Ry     beta= 0.70
     Davidson diagonalization with overlap
     ethr =  1.75E-08,  avg # of iterations =  1.0

     total cpu time spent up to now is       49.7 secs

     total energy              =   -2122.50047640 Ry
     estimated scf accuracy    <       0.00080362 Ry

     iteration # 99     ecut=    40.42 Ry     beta= 0.70
     Davidson diagonalization with overlap
     ethr =  1.75E-08,  avg # of iterations =  6.0

     total cpu time spent up to now is       49.9 secs

     total energy              =   -2122.50062871 Ry
     estimated scf accuracy    <       0.00011163 Ry

     iteration #100     ecut=    40.42 Ry     beta= 0.70
     Davidson diagonalization with overlap
     ethr =  1.75E-08,  avg # of iterations =  3.0

     total cpu time spent up to now is       50.0 secs

     total energy              =   -2122.50063342 Ry
     estimated scf accuracy    <       0.00011447 Ry

     End of self-consistent calculation

     convergence NOT achieved after 100 iterations: stopping

     Writing config to output data dir ./tutorial.save/
     Message from routine punch:
     wavefunctions written to file
 
     init_run     :      0.24s CPU      0.26s WALL (       1 calls)
     electrons    :     45.89s CPU     47.75s WALL (       8 calls)
     update_pot   :      0.78s CPU      0.79s WALL (       7 calls)
     forces       :      0.78s CPU      0.82s WALL (       7 calls)

     Called by init_run:
     wfcinit      :      0.05s CPU      0.05s WALL (       1 calls)
     potinit      :      0.04s CPU      0.04s WALL (       1 calls)
     hinit0       :      0.12s CPU      0.12s WALL (       1 calls)

     Called by electrons:
     c_bands      :     33.71s CPU     34.65s WALL (     269 calls)
     sum_band     :      7.30s CPU      7.97s WALL (     269 calls)
     v_of_rho     :      0.90s CPU      0.91s WALL (     277 calls)
     newd         :      3.88s CPU      3.90s WALL (     277 calls)
     mix_rho      :      0.17s CPU      0.18s WALL (     269 calls)

     Called by c_bands:
     init_us_2    :      0.13s CPU      0.16s WALL (     539 calls)
     init_us_2:cp :      0.13s CPU      0.16s WALL (     539 calls)
     cegterg      :     32.89s CPU     33.75s WALL (     269 calls)

     Called by *egterg:
     cdiaghg      :     12.23s CPU     12.53s WALL (    1190 calls)
     h_psi        :     15.08s CPU     15.57s WALL (    1198 calls)
     s_psi        :      1.03s CPU      1.04s WALL (    1198 calls)
     g_psi        :      0.07s CPU      0.08s WALL (     928 calls)

     Called by h_psi:
     h_psi:calbec :      1.17s CPU      1.20s WALL (    1198 calls)
     vloc_psi     :     12.84s CPU     13.28s WALL (    1198 calls)
     add_vuspsi   :      0.98s CPU      0.99s WALL (    1198 calls)

     General routines
     calbec       :      1.63s CPU      1.67s WALL (    1495 calls)
     fft          :      0.52s CPU      0.53s WALL (    3132 calls)
     ffts         :      0.05s CPU      0.05s WALL (     269 calls)
     fftw         :     14.04s CPU     14.52s WALL (  159222 calls)
     davcio       :      0.00s CPU      0.00s WALL (      19 calls)
 
     Parallel routines
 
     PWSCF        :     48.06s CPU     50.10s WALL

 
   This run was terminated on:  15:14:39  30May2023            

=------------------------------------------------------------------------------=
   JOB DONE.
=------------------------------------------------------------------------------=
