
     Program PWSCF v.7.2 starts on 30May2023 at 15:20:38 

     This program is part of the open-source Quantum ESPRESSO suite
     for quantum simulation of materials; please cite
         "P. Giannozzi et al., J. Phys.:Condens. Matter 21 395502 (2009);
         "P. Giannozzi et al., J. Phys.:Condens. Matter 29 465901 (2017);
         "P. Giannozzi et al., J. Chem. Phys. 152 154105 (2020);
          URL http://www.quantum-espresso.org", 
     in publications or presentations arising from this work. More details at
     http://www.quantum-espresso.org/quote

     Parallel version (MPI), running on    28 processors

     MPI processes distributed on     1 nodes
     36406 MiB available memory on the printing compute node when the environment starts
 
     Waiting for input...
     Reading input from standard input
Warning: card &CELL ignored
Warning: card / ignored

     Current dimensions of program PWSCF are:
     Max number of different atomic species (ntypx) = 10
     Max number of k-points (npk) =  40000
     Max angular momentum in pseudopotentials (lmaxx) =  4
     file Mn.pbesol-spn-rrkjus_psl.0.3.1.UPF: wavefunction(s)  3D renormalized
     Message from routine setup:
     using ibrav=0 with symmetry is DISCOURAGED, use correct ibrav instead
 
     R & G space division:  proc/nbgrp/npool/nimage =      28
     Subspace diagonalization in iterative solution of the eigenvalue problem:
     a serial algorithm will be used

 
     Parallelization info
     --------------------
     sticks:   dense  smooth     PW     G-vecs:    dense   smooth      PW
     Min          35      35      8                 2421     2421     295
     Max          36      36      9                 2434     2434     309
     Sum         985     985    241                67929    67929    8453
 
     Using Slab Decomposition
 


     bravais-lattice index     =            0
     lattice parameter (alat)  =      11.7626  a.u.
     unit-cell volume          =    1959.5247 (a.u.)^3
     number of atoms/cell      =           20
     number of atomic types    =            3
     number of electrons       =       203.00
     number of Kohn-Sham states=          122
     kinetic-energy cutoff     =      40.4242  Ry
     charge density cutoff     =     161.6969  Ry
     scf convergence threshold =      1.0E-06
     mixing beta               =       0.7000
     number of iterations used =            8  plain     mixing
     energy convergence thresh.=      1.0E-04
     force convergence thresh. =      1.0E-03
     Exchange-correlation= PBESOL
                           (   1   4  10   8   0   0   0)
     nstep                     =           50


     celldm(1)=  11.762627  celldm(2)=   0.000000  celldm(3)=   0.000000
     celldm(4)=   0.000000  celldm(5)=   0.000000  celldm(6)=   0.000000

     crystal axes: (cart. coord. in units of alat)
               a(1) = (   0.585717   0.000000   0.810516 )  
               a(2) = (  -0.292859   0.507246   0.000000 )  
               a(3) = (   0.000000   0.000000   4.052578 )  

     reciprocal axes: (cart. coord. in units 2 pi/alat)
               b(1) = (  1.707309  0.985715  0.000000 )  
               b(2) = (  0.000000  1.971431  0.000000 )  
               b(3) = ( -0.341462 -0.197143  0.246757 )  


     PseudoPot. # 1 for Mn read from file:
     /home/valmzztt/Intermetallic_alloys/pseudos/Mn.pbesol-spn-rrkjus_psl.0.3.1.UPF
     MD5 check sum: 61e28eea34dae291f95a967fe31318f1
     Pseudo is Ultrasoft + core correction, Zval = 15.0
     Generated using &quot;atomic&quot; code by A. Dal Corso  v.6.3
     Using radial grid of 1187 points,  6 beta functions with: 
                l(1) =   0
                l(2) =   0
                l(3) =   1
                l(4) =   1
                l(5) =   2
                l(6) =   2
     Q(r) pseudized with 0 coefficients 


     PseudoPot. # 2 for Ni read from file:
     /home/valmzztt/Intermetallic_alloys/pseudos/Ni.pbesol-spn-rrkjus_psl.1.0.0.UPF
     MD5 check sum: 6fc0a587bf949a08f2faed986b854013
     Pseudo is Ultrasoft + core correction, Zval = 18.0
     Generated using &quot;atomic&quot; code by A. Dal Corso  v.6.3
     Using radial grid of 1195 points,  6 beta functions with: 
                l(1) =   0
                l(2) =   0
                l(3) =   1
                l(4) =   1
                l(5) =   2
                l(6) =   2
     Q(r) pseudized with 0 coefficients 


     PseudoPot. # 3 for As read from file:
     /home/valmzztt/Intermetallic_alloys/pseudos/As.pbesol-n-rrkjus_psl.1.0.0.UPF
     MD5 check sum: 2fb13bbab3d0b4e108be5408f3d6fe7c
     Pseudo is Ultrasoft + core correction, Zval =  5.0
     Generated using &quot;atomic&quot; code by A. Dal Corso  v.6.3
     Using radial grid of 1209 points,  4 beta functions with: 
                l(1) =   0
                l(2) =   0
                l(3) =   1
                l(4) =   1
     Q(r) pseudized with 0 coefficients 


     atomic species   valence    mass     pseudopotential
        Mn            15.00    54.93804     Mn( 1.00)
        Ni            18.00    58.69340     Ni( 1.00)
        As             5.00    74.92159     As( 1.00)

      2 Sym. Ops. (no inversion) found



   Cartesian axes

     site n.     atom                  positions (alat units)
         1           Mn  tau(   1) = (   0.0000000   0.0000000   0.0000000  )
         2           Mn  tau(   2) = (   0.0000000   0.0000000   0.4052578  )
         3           Mn  tau(   3) = (   0.0000000   0.0000000   0.8105156  )
         4           Mn  tau(   4) = (   0.0000000   0.0000000   1.2157734  )
         5           Mn  tau(   5) = (   0.0000000   0.0000000   1.6210312  )
         6           Mn  tau(   6) = (   0.0000000   0.0000000   2.0262890  )
         7           Ni  tau(   7) = (   0.0000000   0.0000000   2.4315468  )
         8           Mn  tau(   8) = (   0.0000000   0.0000000   2.8368046  )
         9           Mn  tau(   9) = (   0.0000000   0.0000000   3.2420624  )
        10           Mn  tau(  10) = (   0.0000000   0.0000000   3.6473202  )
        11           As  tau(  11) = (  -0.0000000   0.3381639   1.0131445  )
        12           As  tau(  12) = (  -0.0000000   0.3381639   1.8236601  )
        13           As  tau(  13) = (  -0.0000000   0.3381639   2.6341757  )
        14           As  tau(  14) = (  -0.0000000   0.3381639   3.4446913  )
        15           As  tau(  15) = (  -0.0000000   0.3381639   4.2552070  )
        16           As  tau(  16) = (   0.2928585   0.1690819   0.6078867  )
        17           As  tau(  17) = (   0.2928585   0.1690819   1.4184023  )
        18           As  tau(  18) = (   0.2928585   0.1690819   2.2289179  )
        19           As  tau(  19) = (   0.2928585   0.1690819   3.0394335  )
        20           As  tau(  20) = (   0.2928585   0.1690819   3.8499492  )

     number of k points=     1  Gaussian smearing, width (Ry)=  0.0147
                       cart. coord. in units 2pi/alat
        k(    1) = (   0.0000000   0.0000000   0.0000000), wk =   2.0000000

     Dense  grid:    67929 G-vectors     FFT dimensions: (  48,  27, 200)

     Estimated max dynamical RAM per process >      14.66 MB

     Estimated total dynamical RAM >     410.58 MB

     Check: negative core charge=   -0.000093

     Initial potential from superposition of free atoms

     starting charge     202.9934, renormalised to     203.0000
     Starting wfcs are  140 randomized atomic wfcs

     total cpu time spent up to now is        0.6 secs

     Self-consistent Calculation

     iteration #  1     ecut=    40.42 Ry     beta= 0.70
     Davidson diagonalization with overlap
     ethr =  1.00E-02,  avg # of iterations =  2.0

     total cpu time spent up to now is        0.9 secs

     total energy              =   -2459.44985490 Ry
     estimated scf accuracy    <       7.50662866 Ry

     iteration #  2     ecut=    40.42 Ry     beta= 0.70
     Davidson diagonalization with overlap
     ethr =  3.70E-03,  avg # of iterations =  7.0

     total cpu time spent up to now is        1.4 secs

     total energy              =   -2443.75452028 Ry
     estimated scf accuracy    <     342.93825277 Ry

     iteration #  3     ecut=    40.42 Ry     beta= 0.70
     Davidson diagonalization with overlap
     ethr =  3.70E-03,  avg # of iterations =  8.0

     total cpu time spent up to now is        1.9 secs

     total energy              =   -2448.19224949 Ry
     estimated scf accuracy    <     742.53700088 Ry

     iteration #  4     ecut=    40.42 Ry     beta= 0.70
     Davidson diagonalization with overlap
     ethr =  3.70E-03,  avg # of iterations =  9.0

     total cpu time spent up to now is        2.4 secs

     total energy              =   -2463.79968173 Ry
     estimated scf accuracy    <      42.61509678 Ry

     iteration #  5     ecut=    40.42 Ry     beta= 0.70
     Davidson diagonalization with overlap
     ethr =  3.70E-03,  avg # of iterations =  5.0

     total cpu time spent up to now is        2.7 secs

     total energy              =   -2464.78867682 Ry
     estimated scf accuracy    <       7.87837952 Ry

     iteration #  6     ecut=    40.42 Ry     beta= 0.70
     Davidson diagonalization with overlap
     ethr =  3.70E-03,  avg # of iterations =  2.0

     total cpu time spent up to now is        2.9 secs

     total energy              =   -2464.72483906 Ry
     estimated scf accuracy    <       6.99991551 Ry

     iteration #  7     ecut=    40.42 Ry     beta= 0.70
     Davidson diagonalization with overlap
     ethr =  3.45E-03,  avg # of iterations =  1.0

     total cpu time spent up to now is        3.1 secs

     total energy              =   -2464.85425020 Ry
     estimated scf accuracy    <       3.29330848 Ry

     iteration #  8     ecut=    40.42 Ry     beta= 0.70
     Davidson diagonalization with overlap
     ethr =  1.62E-03,  avg # of iterations =  2.0

     total cpu time spent up to now is        3.3 secs

     total energy              =   -2464.59974681 Ry
     estimated scf accuracy    <      16.50933399 Ry

     iteration #  9     ecut=    40.42 Ry     beta= 0.70
     Davidson diagonalization with overlap
     ethr =  1.62E-03,  avg # of iterations =  2.0

     total cpu time spent up to now is        3.6 secs

     total energy              =   -2464.69480682 Ry
     estimated scf accuracy    <       7.66256060 Ry

     iteration # 10     ecut=    40.42 Ry     beta= 0.70
     Davidson diagonalization with overlap
     ethr =  1.62E-03,  avg # of iterations =  1.0

     total cpu time spent up to now is        3.8 secs

     total energy              =   -2464.86421194 Ry
     estimated scf accuracy    <       2.22114091 Ry

     iteration # 11     ecut=    40.42 Ry     beta= 0.70
     Davidson diagonalization with overlap
     ethr =  1.09E-03,  avg # of iterations =  2.0

     total cpu time spent up to now is        4.0 secs

     total energy              =   -2464.82540511 Ry
     estimated scf accuracy    <       3.52952454 Ry

     iteration # 12     ecut=    40.42 Ry     beta= 0.70
     Davidson diagonalization with overlap
     ethr =  1.09E-03,  avg # of iterations =  1.0

     total cpu time spent up to now is        4.2 secs

     total energy              =   -2464.91789616 Ry
     estimated scf accuracy    <       0.16433463 Ry

     iteration # 13     ecut=    40.42 Ry     beta= 0.70
     Davidson diagonalization with overlap
     ethr =  8.10E-05,  avg # of iterations =  9.0

     total cpu time spent up to now is        4.5 secs

     total energy              =   -2464.88867081 Ry
     estimated scf accuracy    <       2.13789738 Ry

     iteration # 14     ecut=    40.42 Ry     beta= 0.70
     Davidson diagonalization with overlap
     ethr =  8.10E-05,  avg # of iterations =  2.0

     total cpu time spent up to now is        4.8 secs

     total energy              =   -2464.92147655 Ry
     estimated scf accuracy    <       0.18041630 Ry

     iteration # 15     ecut=    40.42 Ry     beta= 0.70
     Davidson diagonalization with overlap
     ethr =  8.10E-05,  avg # of iterations =  2.0

     total cpu time spent up to now is        5.0 secs

     total energy              =   -2464.91513047 Ry
     estimated scf accuracy    <       0.35371506 Ry

     iteration # 16     ecut=    40.42 Ry     beta= 0.70
     Davidson diagonalization with overlap
     ethr =  8.10E-05,  avg # of iterations =  2.0

     total cpu time spent up to now is        5.2 secs

     total energy              =   -2464.85239497 Ry
     estimated scf accuracy    <       2.57036701 Ry

     iteration # 17     ecut=    40.42 Ry     beta= 0.70
     Davidson diagonalization with overlap
     ethr =  8.10E-05,  avg # of iterations =  2.0

     total cpu time spent up to now is        5.4 secs

     total energy              =   -2464.89367250 Ry
     estimated scf accuracy    <       1.28464338 Ry

     iteration # 18     ecut=    40.42 Ry     beta= 0.70
     Davidson diagonalization with overlap
     ethr =  8.10E-05,  avg # of iterations =  2.0

     total cpu time spent up to now is        5.7 secs

     total energy              =   -2464.86046875 Ry
     estimated scf accuracy    <       3.91862379 Ry

     iteration # 19     ecut=    40.42 Ry     beta= 0.70
     Davidson diagonalization with overlap
     ethr =  8.10E-05,  avg # of iterations =  2.0

     total cpu time spent up to now is        5.9 secs

     total energy              =   -2464.90203791 Ry
     estimated scf accuracy    <       1.69897181 Ry

     iteration # 20     ecut=    40.42 Ry     beta= 0.70
     Davidson diagonalization with overlap
     ethr =  8.10E-05,  avg # of iterations =  1.0

     total cpu time spent up to now is        6.1 secs

     total energy              =   -2464.91082128 Ry
     estimated scf accuracy    <       0.85755540 Ry

     iteration # 21     ecut=    40.42 Ry     beta= 0.70
     Davidson diagonalization with overlap
     ethr =  8.10E-05,  avg # of iterations =  2.0

     total cpu time spent up to now is        6.3 secs

     total energy              =   -2464.86282553 Ry
     estimated scf accuracy    <       2.88255137 Ry

     iteration # 22     ecut=    40.42 Ry     beta= 0.70
     Davidson diagonalization with overlap
     ethr =  8.10E-05,  avg # of iterations =  2.0

     total cpu time spent up to now is        6.5 secs

     total energy              =   -2464.92259828 Ry
     estimated scf accuracy    <       0.29736690 Ry

     iteration # 23     ecut=    40.42 Ry     beta= 0.70
     Davidson diagonalization with overlap
     ethr =  8.10E-05,  avg # of iterations =  2.0

     total cpu time spent up to now is        6.8 secs

     total energy              =   -2464.86073707 Ry
     estimated scf accuracy    <       2.68615829 Ry

     iteration # 24     ecut=    40.42 Ry     beta= 0.70
     Davidson diagonalization with overlap
     ethr =  8.10E-05,  avg # of iterations =  5.0

     total cpu time spent up to now is        7.1 secs

     total energy              =   -2464.58487870 Ry
     estimated scf accuracy    <      13.51318736 Ry

     iteration # 25     ecut=    40.42 Ry     beta= 0.70
     Davidson diagonalization with overlap
     ethr =  8.10E-05,  avg # of iterations =  5.0

     total cpu time spent up to now is        7.5 secs

     total energy              =   -2464.84389457 Ry
     estimated scf accuracy    <       3.71053393 Ry

     iteration # 26     ecut=    40.42 Ry     beta= 0.70
     Davidson diagonalization with overlap
     ethr =  8.10E-05,  avg # of iterations =  3.0

     total cpu time spent up to now is        7.7 secs

     total energy              =   -2464.86911763 Ry
     estimated scf accuracy    <       1.96367827 Ry

     iteration # 27     ecut=    40.42 Ry     beta= 0.70
     Davidson diagonalization with overlap
     ethr =  8.10E-05,  avg # of iterations =  5.0

     total cpu time spent up to now is        8.0 secs

     total energy              =   -2464.82914508 Ry
     estimated scf accuracy    <       4.25666292 Ry

     iteration # 28     ecut=    40.42 Ry     beta= 0.70
     Davidson diagonalization with overlap
     ethr =  8.10E-05,  avg # of iterations =  5.0

     total cpu time spent up to now is        8.3 secs

     total energy              =   -2464.85342211 Ry
     estimated scf accuracy    <       2.89156099 Ry

     iteration # 29     ecut=    40.42 Ry     beta= 0.70
     Davidson diagonalization with overlap
     ethr =  8.10E-05,  avg # of iterations = 10.0

     total cpu time spent up to now is        8.7 secs

     total energy              =   -2464.49937858 Ry
     estimated scf accuracy    <      26.02592837 Ry

     iteration # 30     ecut=    40.42 Ry     beta= 0.70
     Davidson diagonalization with overlap
     ethr =  8.10E-05,  avg # of iterations = 10.0

     total cpu time spent up to now is        9.2 secs

     total energy              =   -2464.62052659 Ry
     estimated scf accuracy    <      13.93089881 Ry

     iteration # 31     ecut=    40.42 Ry     beta= 0.70
     Davidson diagonalization with overlap
     ethr =  8.10E-05,  avg # of iterations =  8.0

     total cpu time spent up to now is        9.6 secs

     total energy              =   -2464.62214026 Ry
     estimated scf accuracy    <      10.32806108 Ry

     iteration # 32     ecut=    40.42 Ry     beta= 0.70
     Davidson diagonalization with overlap
     ethr =  8.10E-05,  avg # of iterations =  7.0

     total cpu time spent up to now is       10.0 secs

     total energy              =   -2464.61869127 Ry
     estimated scf accuracy    <       9.27158859 Ry

     iteration # 33     ecut=    40.42 Ry     beta= 0.70
     Davidson diagonalization with overlap
     ethr =  8.10E-05,  avg # of iterations = 15.0

     total cpu time spent up to now is       10.7 secs

     total energy              =   -2463.67773068 Ry
     estimated scf accuracy    <      67.53142927 Ry

     iteration # 34     ecut=    40.42 Ry     beta= 0.70
     Davidson diagonalization with overlap
     ethr =  8.10E-05,  avg # of iterations = 14.0

     total cpu time spent up to now is       11.3 secs

     total energy              =   -2464.54521035 Ry
     estimated scf accuracy    <      12.69415328 Ry

     iteration # 35     ecut=    40.42 Ry     beta= 0.70
     Davidson diagonalization with overlap
     ethr =  8.10E-05,  avg # of iterations = 14.0

     total cpu time spent up to now is       11.9 secs

     total energy              =   -2464.28109311 Ry
     estimated scf accuracy    <      21.70254351 Ry

     iteration # 36     ecut=    40.42 Ry     beta= 0.70
     Davidson diagonalization with overlap
     ethr =  8.10E-05,  avg # of iterations = 15.0

     total cpu time spent up to now is       12.6 secs

     total energy              =   -2463.95407523 Ry
     estimated scf accuracy    <      33.38998982 Ry

     iteration # 37     ecut=    40.42 Ry     beta= 0.70
     Davidson diagonalization with overlap
     ethr =  8.10E-05,  avg # of iterations = 14.0

     total cpu time spent up to now is       13.3 secs

     total energy              =   -2463.75116290 Ry
     estimated scf accuracy    <      21.83911425 Ry

     iteration # 38     ecut=    40.42 Ry     beta= 0.70
     Davidson diagonalization with overlap
     ethr =  8.10E-05,  avg # of iterations = 14.0

     total cpu time spent up to now is       14.0 secs

     total energy              =   -2462.82869743 Ry
     estimated scf accuracy    <      77.03859710 Ry

     iteration # 39     ecut=    40.42 Ry     beta= 0.70
     Davidson diagonalization with overlap
     ethr =  8.10E-05,  avg # of iterations = 14.0

     total cpu time spent up to now is       14.8 secs

     total energy              =   -2462.91838980 Ry
     estimated scf accuracy    <      88.97625968 Ry

     iteration # 40     ecut=    40.42 Ry     beta= 0.70
     Davidson diagonalization with overlap
     ethr =  8.10E-05,  avg # of iterations = 11.0

     total cpu time spent up to now is       15.5 secs

     total energy              =   -2462.16050304 Ry
     estimated scf accuracy    <      85.19284835 Ry

     iteration # 41     ecut=    40.42 Ry     beta= 0.70
     Davidson diagonalization with overlap
     ethr =  8.10E-05,  avg # of iterations = 11.0

     total cpu time spent up to now is       16.2 secs

     total energy              =   -2462.69527958 Ry
     estimated scf accuracy    <      56.10728675 Ry

     iteration # 42     ecut=    40.42 Ry     beta= 0.70
     Davidson diagonalization with overlap
     ethr =  8.10E-05,  avg # of iterations = 15.0

     total cpu time spent up to now is       17.1 secs

     total energy              =   -2463.00982641 Ry
     estimated scf accuracy    <      76.29144881 Ry

     iteration # 43     ecut=    40.42 Ry     beta= 0.70
     Davidson diagonalization with overlap
     ethr =  8.10E-05,  avg # of iterations = 16.0

     total cpu time spent up to now is       17.7 secs

     total energy              =   -2463.30717045 Ry
     estimated scf accuracy    <      46.23116014 Ry

     iteration # 44     ecut=    40.42 Ry     beta= 0.70
     Davidson diagonalization with overlap
     ethr =  8.10E-05,  avg # of iterations = 13.0

     total cpu time spent up to now is       18.5 secs

     total energy              =   -2460.81454382 Ry
     estimated scf accuracy    <      91.74853389 Ry

     iteration # 45     ecut=    40.42 Ry     beta= 0.70
     Davidson diagonalization with overlap
     ethr =  8.10E-05,  avg # of iterations = 13.0

     total cpu time spent up to now is       19.3 secs

     total energy              =   -2461.16763611 Ry
     estimated scf accuracy    <      97.54860687 Ry

     iteration # 46     ecut=    40.42 Ry     beta= 0.70
     Davidson diagonalization with overlap
     ethr =  8.10E-05,  avg # of iterations = 12.0

     total cpu time spent up to now is       20.0 secs

     total energy              =   -2460.01830591 Ry
     estimated scf accuracy    <     112.65586758 Ry

     iteration # 47     ecut=    40.42 Ry     beta= 0.70
     Davidson diagonalization with overlap
     ethr =  8.10E-05,  avg # of iterations = 12.0

     total cpu time spent up to now is       20.7 secs

     total energy              =   -2461.33524421 Ry
     estimated scf accuracy    <     113.80749538 Ry

     iteration # 48     ecut=    40.42 Ry     beta= 0.70
     Davidson diagonalization with overlap
     ethr =  8.10E-05,  avg # of iterations = 14.0

     total cpu time spent up to now is       21.6 secs

     total energy              =   -2462.01125190 Ry
     estimated scf accuracy    <      95.97064659 Ry

     iteration # 49     ecut=    40.42 Ry     beta= 0.70
     Davidson diagonalization with overlap
     ethr =  8.10E-05,  avg # of iterations = 14.0

     total cpu time spent up to now is       22.4 secs

     total energy              =   -2460.37825235 Ry
     estimated scf accuracy    <     209.21963522 Ry

     iteration # 50     ecut=    40.42 Ry     beta= 0.70
     Davidson diagonalization with overlap
     ethr =  8.10E-05,  avg # of iterations = 13.0

     total cpu time spent up to now is       23.2 secs

     total energy              =   -2461.60626638 Ry
     estimated scf accuracy    <      73.95967914 Ry

     iteration # 51     ecut=    40.42 Ry     beta= 0.70
     Davidson diagonalization with overlap
     ethr =  8.10E-05,  avg # of iterations = 13.0

     total cpu time spent up to now is       24.0 secs

     total energy              =   -2461.94205744 Ry
     estimated scf accuracy    <      69.20124753 Ry

     iteration # 52     ecut=    40.42 Ry     beta= 0.70
     Davidson diagonalization with overlap
     ethr =  8.10E-05,  avg # of iterations = 19.0

     total cpu time spent up to now is       25.0 secs

     total energy              =   -2458.87958038 Ry
     estimated scf accuracy    <     159.25129054 Ry

     iteration # 53     ecut=    40.42 Ry     beta= 0.70
     Davidson diagonalization with overlap
     ethr =  8.10E-05,  avg # of iterations = 14.0

     total cpu time spent up to now is       25.8 secs

     total energy              =   -2447.76090770 Ry
     estimated scf accuracy    <     681.49003903 Ry

     iteration # 54     ecut=    40.42 Ry     beta= 0.70
     Davidson diagonalization with overlap
     c_bands:  1 eigenvalues not converged
     ethr =  8.10E-05,  avg # of iterations = 20.0

     total cpu time spent up to now is       26.8 secs

     total energy              =   -2459.79830608 Ry
     estimated scf accuracy    <      91.21842825 Ry

     iteration # 55     ecut=    40.42 Ry     beta= 0.70
     Davidson diagonalization with overlap
     ethr =  8.10E-05,  avg # of iterations = 14.0

     total cpu time spent up to now is       27.6 secs

     total energy              =   -2459.41736506 Ry
     estimated scf accuracy    <     113.71296269 Ry

     iteration # 56     ecut=    40.42 Ry     beta= 0.70
     Davidson diagonalization with overlap
     c_bands:  1 eigenvalues not converged
     ethr =  8.10E-05,  avg # of iterations = 20.0

     total cpu time spent up to now is       28.5 secs

     total energy              =   -2460.27342070 Ry
     estimated scf accuracy    <     135.41333781 Ry

     iteration # 57     ecut=    40.42 Ry     beta= 0.70
     Davidson diagonalization with overlap
     ethr =  8.10E-05,  avg # of iterations = 13.0

     total cpu time spent up to now is       29.2 secs

     total energy              =   -2460.66520758 Ry
     estimated scf accuracy    <      85.54076506 Ry

     iteration # 58     ecut=    40.42 Ry     beta= 0.70
     Davidson diagonalization with overlap
     ethr =  8.10E-05,  avg # of iterations = 14.0

     total cpu time spent up to now is       30.1 secs

     total energy              =   -2457.56561589 Ry
     estimated scf accuracy    <     181.34426460 Ry

     iteration # 59     ecut=    40.42 Ry     beta= 0.70
     Davidson diagonalization with overlap
     ethr =  8.10E-05,  avg # of iterations = 16.0

     total cpu time spent up to now is       31.0 secs

     total energy              =   -2454.04711409 Ry
     estimated scf accuracy    <     416.96922995 Ry

     iteration # 60     ecut=    40.42 Ry     beta= 0.70
     Davidson diagonalization with overlap
     ethr =  8.10E-05,  avg # of iterations = 17.0

     total cpu time spent up to now is       32.0 secs

     total energy              =   -2455.68077049 Ry
     estimated scf accuracy    <     188.30177958 Ry

     iteration # 61     ecut=    40.42 Ry     beta= 0.70
     Davidson diagonalization with overlap
     ethr =  8.10E-05,  avg # of iterations = 18.0

     total cpu time spent up to now is       33.1 secs

     total energy              =   -2459.10802464 Ry
     estimated scf accuracy    <     106.28778006 Ry

     iteration # 62     ecut=    40.42 Ry     beta= 0.70
     Davidson diagonalization with overlap
     ethr =  8.10E-05,  avg # of iterations = 14.0

     total cpu time spent up to now is       33.9 secs

     total energy              =   -2458.02371100 Ry
     estimated scf accuracy    <     226.08324655 Ry

     iteration # 63     ecut=    40.42 Ry     beta= 0.70
     Davidson diagonalization with overlap
     ethr =  8.10E-05,  avg # of iterations = 14.0

     total cpu time spent up to now is       34.7 secs

     total energy              =   -2455.43736365 Ry
     estimated scf accuracy    <     424.15343949 Ry

     iteration # 64     ecut=    40.42 Ry     beta= 0.70
     Davidson diagonalization with overlap
     ethr =  8.10E-05,  avg # of iterations = 17.0

     total cpu time spent up to now is       35.7 secs

     total energy              =   -2459.07835270 Ry
     estimated scf accuracy    <      95.92863100 Ry

     iteration # 65     ecut=    40.42 Ry     beta= 0.70
     Davidson diagonalization with overlap
     ethr =  8.10E-05,  avg # of iterations = 17.0

     total cpu time spent up to now is       36.6 secs

     total energy              =   -2459.27854055 Ry
     estimated scf accuracy    <     129.18056018 Ry

     iteration # 66     ecut=    40.42 Ry     beta= 0.70
     Davidson diagonalization with overlap
     ethr =  8.10E-05,  avg # of iterations = 13.0

     total cpu time spent up to now is       37.3 secs

     total energy              =   -2459.96963140 Ry
     estimated scf accuracy    <     109.39373225 Ry

     iteration # 67     ecut=    40.42 Ry     beta= 0.70
     Davidson diagonalization with overlap
     ethr =  8.10E-05,  avg # of iterations = 15.0

     total cpu time spent up to now is       38.1 secs

     total energy              =   -2457.69227811 Ry
     estimated scf accuracy    <     169.45388449 Ry

     iteration # 68     ecut=    40.42 Ry     beta= 0.70
     Davidson diagonalization with overlap
     ethr =  8.10E-05,  avg # of iterations = 17.0

     total cpu time spent up to now is       39.1 secs

     total energy              =   -2458.26111148 Ry
     estimated scf accuracy    <     128.84871146 Ry

     iteration # 69     ecut=    40.42 Ry     beta= 0.70
     Davidson diagonalization with overlap
     ethr =  8.10E-05,  avg # of iterations = 16.0

     total cpu time spent up to now is       40.0 secs

     total energy              =   -2448.09575768 Ry
     estimated scf accuracy    <     659.86296598 Ry

     iteration # 70     ecut=    40.42 Ry     beta= 0.70
     Davidson diagonalization with overlap
     c_bands:  2 eigenvalues not converged
     ethr =  8.10E-05,  avg # of iterations = 20.0

     total cpu time spent up to now is       41.1 secs

     total energy              =   -2455.77626061 Ry
     estimated scf accuracy    <     208.21881727 Ry

     iteration # 71     ecut=    40.42 Ry     beta= 0.70
     Davidson diagonalization with overlap
     ethr =  8.10E-05,  avg # of iterations = 18.0

     total cpu time spent up to now is       42.2 secs

     total energy              =   -2460.21720544 Ry
     estimated scf accuracy    <     108.56666083 Ry

     iteration # 72     ecut=    40.42 Ry     beta= 0.70
     Davidson diagonalization with overlap
     ethr =  8.10E-05,  avg # of iterations = 16.0

     total cpu time spent up to now is       43.2 secs

     total energy              =   -2458.97601659 Ry
     estimated scf accuracy    <     185.78796007 Ry

     iteration # 73     ecut=    40.42 Ry     beta= 0.70
     Davidson diagonalization with overlap
     ethr =  8.10E-05,  avg # of iterations = 17.0

     total cpu time spent up to now is       44.2 secs

     total energy              =   -2453.06180863 Ry
     estimated scf accuracy    <     457.10215410 Ry

     iteration # 74     ecut=    40.42 Ry     beta= 0.70
     Davidson diagonalization with overlap
     ethr =  8.10E-05,  avg # of iterations = 14.0

     total cpu time spent up to now is       45.0 secs

     total energy              =   -2457.72546852 Ry
     estimated scf accuracy    <     129.41098201 Ry

     iteration # 75     ecut=    40.42 Ry     beta= 0.70
     Davidson diagonalization with overlap
     ethr =  8.10E-05,  avg # of iterations = 14.0

     total cpu time spent up to now is       45.9 secs

     total energy              =   -2457.20308211 Ry
     estimated scf accuracy    <     174.49330060 Ry

     iteration # 76     ecut=    40.42 Ry     beta= 0.70
     Davidson diagonalization with overlap
     ethr =  8.10E-05,  avg # of iterations = 15.0

     total cpu time spent up to now is       46.7 secs

     total energy              =   -2457.91950614 Ry
     estimated scf accuracy    <     155.15362543 Ry

     iteration # 77     ecut=    40.42 Ry     beta= 0.70
     Davidson diagonalization with overlap
     ethr =  8.10E-05,  avg # of iterations = 16.0

     total cpu time spent up to now is       47.6 secs

     total energy              =   -2456.75533810 Ry
     estimated scf accuracy    <     182.88844901 Ry

     iteration # 78     ecut=    40.42 Ry     beta= 0.70
     Davidson diagonalization with overlap
     ethr =  8.10E-05,  avg # of iterations = 20.0

     total cpu time spent up to now is       48.6 secs

     total energy              =   -2457.59148200 Ry
     estimated scf accuracy    <     166.77227045 Ry

     iteration # 79     ecut=    40.42 Ry     beta= 0.70
     Davidson diagonalization with overlap
     ethr =  8.10E-05,  avg # of iterations = 17.0

     total cpu time spent up to now is       49.6 secs

     total energy              =   -2449.23127753 Ry
     estimated scf accuracy    <     602.35990853 Ry

     iteration # 80     ecut=    40.42 Ry     beta= 0.70
     Davidson diagonalization with overlap
     ethr =  8.10E-05,  avg # of iterations = 19.0

     total cpu time spent up to now is       50.7 secs

     total energy              =   -2453.78725855 Ry
     estimated scf accuracy    <     292.94349841 Ry

     iteration # 81     ecut=    40.42 Ry     beta= 0.70
     Davidson diagonalization with overlap
     c_bands:  1 eigenvalues not converged
     ethr =  8.10E-05,  avg # of iterations = 20.0

     total cpu time spent up to now is       51.8 secs

     total energy              =   -2458.22610800 Ry
     estimated scf accuracy    <     121.15910974 Ry

     iteration # 82     ecut=    40.42 Ry     beta= 0.70
     Davidson diagonalization with overlap
     ethr =  8.10E-05,  avg # of iterations = 16.0

     total cpu time spent up to now is       52.7 secs

     total energy              =   -2456.58750896 Ry
     estimated scf accuracy    <     219.62463021 Ry

     iteration # 83     ecut=    40.42 Ry     beta= 0.70
     Davidson diagonalization with overlap
     ethr =  8.10E-05,  avg # of iterations = 20.0

     total cpu time spent up to now is       53.8 secs

     total energy              =   -2449.11447067 Ry
     estimated scf accuracy    <     604.31996555 Ry

     iteration # 84     ecut=    40.42 Ry     beta= 0.70
     Davidson diagonalization with overlap
     ethr =  8.10E-05,  avg # of iterations = 15.0

     total cpu time spent up to now is       54.7 secs

     total energy              =   -2458.85939192 Ry
     estimated scf accuracy    <     128.22628407 Ry

     iteration # 85     ecut=    40.42 Ry     beta= 0.70
     Davidson diagonalization with overlap
     ethr =  8.10E-05,  avg # of iterations = 16.0

     total cpu time spent up to now is       55.6 secs

     total energy              =   -2458.10773567 Ry
     estimated scf accuracy    <     182.22555711 Ry

     iteration # 86     ecut=    40.42 Ry     beta= 0.70
     Davidson diagonalization with overlap
     ethr =  8.10E-05,  avg # of iterations = 15.0

     total cpu time spent up to now is       56.5 secs

     total energy              =   -2456.87944038 Ry
     estimated scf accuracy    <     157.25112421 Ry

     iteration # 87     ecut=    40.42 Ry     beta= 0.70
     Davidson diagonalization with overlap
     ethr =  8.10E-05,  avg # of iterations = 15.0

     total cpu time spent up to now is       57.4 secs

     total energy              =   -2454.77177418 Ry
     estimated scf accuracy    <     233.41585753 Ry

     iteration # 88     ecut=    40.42 Ry     beta= 0.70
     Davidson diagonalization with overlap
     ethr =  8.10E-05,  avg # of iterations = 19.0

     total cpu time spent up to now is       58.4 secs

     total energy              =   -2457.34866756 Ry
     estimated scf accuracy    <     163.20473949 Ry

     iteration # 89     ecut=    40.42 Ry     beta= 0.70
     Davidson diagonalization with overlap
     ethr =  8.10E-05,  avg # of iterations = 18.0

     total cpu time spent up to now is       59.4 secs

     total energy              =   -2444.96760294 Ry
     estimated scf accuracy    <     731.30962788 Ry

     iteration # 90     ecut=    40.42 Ry     beta= 0.70
     Davidson diagonalization with overlap
     c_bands:  2 eigenvalues not converged
     ethr =  8.10E-05,  avg # of iterations = 20.0

     total cpu time spent up to now is       60.5 secs

     total energy              =   -2454.05587407 Ry
     estimated scf accuracy    <     301.57571304 Ry

     iteration # 91     ecut=    40.42 Ry     beta= 0.70
     Davidson diagonalization with overlap
     ethr =  8.10E-05,  avg # of iterations = 20.0

     total cpu time spent up to now is       61.6 secs

     total energy              =   -2458.00061729 Ry
     estimated scf accuracy    <     128.35577972 Ry

     iteration # 92     ecut=    40.42 Ry     beta= 0.70
     Davidson diagonalization with overlap
     ethr =  8.10E-05,  avg # of iterations = 18.0

     total cpu time spent up to now is       62.6 secs

     total energy              =   -2457.91164893 Ry
     estimated scf accuracy    <     187.75339883 Ry

     iteration # 93     ecut=    40.42 Ry     beta= 0.70
     Davidson diagonalization with overlap
     ethr =  8.10E-05,  avg # of iterations = 17.0

     total cpu time spent up to now is       63.6 secs

     total energy              =   -2450.15780062 Ry
     estimated scf accuracy    <     527.52802793 Ry

     iteration # 94     ecut=    40.42 Ry     beta= 0.70
     Davidson diagonalization with overlap
     ethr =  8.10E-05,  avg # of iterations = 20.0

     total cpu time spent up to now is       64.7 secs

     total energy              =   -2458.58963595 Ry
     estimated scf accuracy    <     126.62657811 Ry

     iteration # 95     ecut=    40.42 Ry     beta= 0.70
     Davidson diagonalization with overlap
     c_bands:  1 eigenvalues not converged
     ethr =  8.10E-05,  avg # of iterations = 20.0

     total cpu time spent up to now is       65.6 secs

     total energy              =   -2457.25834537 Ry
     estimated scf accuracy    <     205.12572155 Ry

     iteration # 96     ecut=    40.42 Ry     beta= 0.70
     Davidson diagonalization with overlap
     ethr =  8.10E-05,  avg # of iterations = 14.0

     total cpu time spent up to now is       66.5 secs

     total energy              =   -2456.21468022 Ry
     estimated scf accuracy    <     173.83580465 Ry

     iteration # 97     ecut=    40.42 Ry     beta= 0.70
     Davidson diagonalization with overlap
     ethr =  8.10E-05,  avg # of iterations = 15.0

     total cpu time spent up to now is       67.4 secs

     total energy              =   -2454.43385461 Ry
     estimated scf accuracy    <     254.98174978 Ry

     iteration # 98     ecut=    40.42 Ry     beta= 0.70
     Davidson diagonalization with overlap
     ethr =  8.10E-05,  avg # of iterations = 20.0

     total cpu time spent up to now is       68.5 secs

     total energy              =   -2457.94542045 Ry
     estimated scf accuracy    <     168.91823966 Ry

     iteration # 99     ecut=    40.42 Ry     beta= 0.70
     Davidson diagonalization with overlap
     ethr =  8.10E-05,  avg # of iterations = 17.0

     total cpu time spent up to now is       69.4 secs

     total energy              =   -2448.22051866 Ry
     estimated scf accuracy    <     637.44183579 Ry

     iteration #100     ecut=    40.42 Ry     beta= 0.70
     Davidson diagonalization with overlap
     c_bands:  1 eigenvalues not converged
     ethr =  8.10E-05,  avg # of iterations = 20.0

     total cpu time spent up to now is       70.6 secs

     total energy              =   -2454.05563280 Ry
     estimated scf accuracy    <     317.21831202 Ry

     End of self-consistent calculation

     convergence NOT achieved after 100 iterations: stopping

     Writing config to output data dir ./tutorial.save/
     Message from routine punch:
     wavefunctions written to file
 
     init_run     :      0.33s CPU      0.35s WALL (       1 calls)
     electrons    :     69.01s CPU     69.97s WALL (       1 calls)

     Called by init_run:
     wfcinit      :      0.08s CPU      0.09s WALL (       1 calls)
     potinit      :      0.06s CPU      0.06s WALL (       1 calls)
     hinit0       :      0.15s CPU      0.16s WALL (       1 calls)

     Called by electrons:
     c_bands      :     62.27s CPU     63.04s WALL (     100 calls)
     sum_band     :      4.31s CPU      4.37s WALL (     100 calls)
     v_of_rho     :      0.45s CPU      0.46s WALL (     101 calls)
     newd         :      1.88s CPU      1.89s WALL (     101 calls)
     mix_rho      :      0.10s CPU      0.10s WALL (     100 calls)

     Called by c_bands:
     init_us_2    :      0.11s CPU      0.11s WALL (     201 calls)
     init_us_2:cp :      0.11s CPU      0.11s WALL (     201 calls)
     cegterg      :     61.77s CPU     62.50s WALL (     100 calls)

     Called by *egterg:
     cdiaghg      :     24.94s CPU     25.00s WALL (    1314 calls)
     h_psi        :     24.41s CPU     24.99s WALL (    1315 calls)
     s_psi        :      1.76s CPU      1.77s WALL (    1315 calls)
     g_psi        :      0.15s CPU      0.15s WALL (    1214 calls)

     Called by h_psi:
     h_psi:calbec :      1.93s CPU      1.96s WALL (    1315 calls)
     vloc_psi     :     20.64s CPU     21.18s WALL (    1315 calls)
     add_vuspsi   :      1.69s CPU      1.70s WALL (    1315 calls)

     General routines
     calbec       :      2.21s CPU      2.24s WALL (    1415 calls)
     fft          :      0.25s CPU      0.25s WALL (    1112 calls)
     ffts         :      0.03s CPU      0.03s WALL (     100 calls)
     fftw         :     20.21s CPU     20.72s WALL (  171352 calls)
     davcio       :      0.00s CPU      0.00s WALL (      19 calls)
 
     Parallel routines
 
     PWSCF        :   1m 9.61s CPU   1m10.65s WALL

 
   This run was terminated on:  15:21:48  30May2023            

=------------------------------------------------------------------------------=
   JOB DONE.
=------------------------------------------------------------------------------=
