
     Program PWSCF v.7.2 starts on 30May2023 at 14: 7:20 

     This program is part of the open-source Quantum ESPRESSO suite
     for quantum simulation of materials; please cite
         "P. Giannozzi et al., J. Phys.:Condens. Matter 21 395502 (2009);
         "P. Giannozzi et al., J. Phys.:Condens. Matter 29 465901 (2017);
         "P. Giannozzi et al., J. Chem. Phys. 152 154105 (2020);
          URL http://www.quantum-espresso.org", 
     in publications or presentations arising from this work. More details at
     http://www.quantum-espresso.org/quote

     Parallel version (MPI), running on    28 processors

     MPI processes distributed on     1 nodes
     86426 MiB available memory on the printing compute node when the environment starts
 
     Waiting for input...
     Reading input from standard input
Warning: card &CELL ignored
Warning: card / ignored

     Current dimensions of program PWSCF are:
     Max number of different atomic species (ntypx) = 10
     Max number of k-points (npk) =  40000
     Max angular momentum in pseudopotentials (lmaxx) =  4
     file Mn.pbesol-spn-rrkjus_psl.0.3.1.UPF: wavefunction(s)  3D renormalized
     Message from routine setup:
     using ibrav=0 with symmetry is DISCOURAGED, use correct ibrav instead
 
     R & G space division:  proc/nbgrp/npool/nimage =      28
     Subspace diagonalization in iterative solution of the eigenvalue problem:
     a serial algorithm will be used

 
     Parallelization info
     --------------------
     sticks:   dense  smooth     PW     G-vecs:    dense   smooth      PW
     Min          87      87     21                 1940     1940     239
     Max          88      88     22                 1943     1943     242
     Sum        2461    2461    611                54385    54385    6739
 
     Using Slab Decomposition
 


     bravais-lattice index     =            0
     lattice parameter (alat)  =      16.7558  a.u.
     unit-cell volume          =    1567.6197 (a.u.)^3
     number of atoms/cell      =           16
     number of atomic types    =            3
     number of electrons       =       178.00
     number of Kohn-Sham states=          107
     kinetic-energy cutoff     =      40.4242  Ry
     charge density cutoff     =     161.6969  Ry
     scf convergence threshold =      1.0E-06
     mixing beta               =       0.7000
     number of iterations used =            8  plain     mixing
     energy convergence thresh.=      1.0E-04
     force convergence thresh. =      1.0E-03
     Exchange-correlation= PBESOL
                           (   1   4  10   8   0   0   0)
     nstep                     =           50


     celldm(1)=  16.755834  celldm(2)=   0.000000  celldm(3)=   0.000000
     celldm(4)=   0.000000  celldm(5)=   0.000000  celldm(6)=   0.000000

     crystal axes: (cart. coord. in units of alat)
               a(1) = (   0.822349   0.000000   0.568983 )  
               a(2) = (  -0.205587   0.356088   0.568983 )  
               a(3) = (   0.000000   0.000000   1.137967 )  

     reciprocal axes: (cart. coord. in units 2 pi/alat)
               b(1) = (  1.216029  0.702075  0.000000 )  
               b(2) = (  0.000000  2.808298  0.000000 )  
               b(3) = ( -0.608014 -1.755186  0.878760 )  


     PseudoPot. # 1 for Ni read from file:
     /home/valmzztt/Intermetallic_alloys/pseudos/Ni.pbesol-spn-rrkjus_psl.1.0.0.UPF
     MD5 check sum: 6fc0a587bf949a08f2faed986b854013
     Pseudo is Ultrasoft + core correction, Zval = 18.0
     Generated using &quot;atomic&quot; code by A. Dal Corso  v.6.3
     Using radial grid of 1195 points,  6 beta functions with: 
                l(1) =   0
                l(2) =   0
                l(3) =   1
                l(4) =   1
                l(5) =   2
                l(6) =   2
     Q(r) pseudized with 0 coefficients 


     PseudoPot. # 2 for Mn read from file:
     /home/valmzztt/Intermetallic_alloys/pseudos/Mn.pbesol-spn-rrkjus_psl.0.3.1.UPF
     MD5 check sum: 61e28eea34dae291f95a967fe31318f1
     Pseudo is Ultrasoft + core correction, Zval = 15.0
     Generated using &quot;atomic&quot; code by A. Dal Corso  v.6.3
     Using radial grid of 1187 points,  6 beta functions with: 
                l(1) =   0
                l(2) =   0
                l(3) =   1
                l(4) =   1
                l(5) =   2
                l(6) =   2
     Q(r) pseudized with 0 coefficients 


     PseudoPot. # 3 for As read from file:
     /home/valmzztt/Intermetallic_alloys/pseudos/As.pbesol-n-rrkjus_psl.1.0.0.UPF
     MD5 check sum: 2fb13bbab3d0b4e108be5408f3d6fe7c
     Pseudo is Ultrasoft + core correction, Zval =  5.0
     Generated using &quot;atomic&quot; code by A. Dal Corso  v.6.3
     Using radial grid of 1209 points,  4 beta functions with: 
                l(1) =   0
                l(2) =   0
                l(3) =   1
                l(4) =   1
     Q(r) pseudized with 0 coefficients 


     atomic species   valence    mass     pseudopotential
        Ni            18.00    58.69340     Ni( 1.00)
        Mn            15.00    54.93804     Mn( 1.00)
        As             5.00    74.92159     As( 1.00)

      4 Sym. Ops., with inversion, found ( 3 have fractional translation)



   Cartesian axes

     site n.     atom                  positions (alat units)
         1           Ni  tau(   1) = (   0.0000000   0.0000000   0.0000000  )
         2           Ni  tau(   2) = (   0.0000000   0.0000000   0.2844917  )
         3           Ni  tau(   3) = (   0.0000000   0.0000000   0.5689835  )
         4           Mn  tau(   4) = (   0.0000000   0.0000000   0.8534752  )
         5           As  tau(   5) = (  -0.0000000   0.2373917   0.7112294  )
         6           As  tau(   6) = (  -0.0000000   0.2373917   1.2802129  )
         7           As  tau(   7) = (   0.2055872   0.1186958   0.4267376  )
         8           As  tau(   8) = (   0.2055872   0.1186958   0.9957211  )
         9           Ni  tau(   9) = (   0.4111745   0.0000000   0.2844917  )
        10           Mn  tau(  10) = (   0.4111745   0.0000000   0.5689835  )
        11           Ni  tau(  11) = (   0.4111745   0.0000000   0.8534752  )
        12           Ni  tau(  12) = (   0.4111745   0.0000000   1.1379670  )
        13           As  tau(  13) = (   0.4111745   0.2373917   1.2802129  )
        14           As  tau(  14) = (   0.4111745   0.2373917   1.8491964  )
        15           As  tau(  15) = (   0.6167617   0.1186958   0.9957211  )
        16           As  tau(  16) = (   0.6167617   0.1186958   1.5647046  )

     number of k points=     1  Gaussian smearing, width (Ry)=  0.0147
                       cart. coord. in units 2pi/alat
        k(    1) = (   0.0000000   0.0000000   0.0000000), wk =   2.0000000

     Dense  grid:    54385 G-vectors     FFT dimensions: (  72,  48,  80)

     Estimated max dynamical RAM per process >      12.08 MB

     Estimated total dynamical RAM >     338.34 MB

     Check: negative core charge=   -0.000035

     Initial potential from superposition of free atoms

     starting charge     177.9959, renormalised to     178.0000
     Starting wfcs are  112 randomized atomic wfcs

     total cpu time spent up to now is        0.6 secs

     Self-consistent Calculation

     iteration #  1     ecut=    40.42 Ry     beta= 0.70
     Davidson diagonalization with overlap
     ethr =  1.00E-02,  avg # of iterations =  4.0

     total cpu time spent up to now is        0.8 secs

     total energy              =   -2622.53037727 Ry
     estimated scf accuracy    <       2.91511489 Ry

     iteration #  2     ecut=    40.42 Ry     beta= 0.70
     Davidson diagonalization with overlap
     ethr =  1.64E-03,  avg # of iterations =  5.0

     total cpu time spent up to now is        1.1 secs

     total energy              =   -2617.85136439 Ry
     estimated scf accuracy    <      62.94394861 Ry

     iteration #  3     ecut=    40.42 Ry     beta= 0.70
     Davidson diagonalization with overlap
     ethr =  1.64E-03,  avg # of iterations =  5.0

     total cpu time spent up to now is        1.4 secs

     total energy              =   -2622.24214457 Ry
     estimated scf accuracy    <      41.28085222 Ry

     iteration #  4     ecut=    40.42 Ry     beta= 0.70
     Davidson diagonalization with overlap
     ethr =  1.64E-03,  avg # of iterations =  2.0

     total cpu time spent up to now is        1.5 secs

     total energy              =   -2623.73511213 Ry
     estimated scf accuracy    <      12.39318163 Ry

     iteration #  5     ecut=    40.42 Ry     beta= 0.70
     Davidson diagonalization with overlap
     ethr =  1.64E-03,  avg # of iterations =  2.0

     total cpu time spent up to now is        1.7 secs

     total energy              =   -2624.32091259 Ry
     estimated scf accuracy    <       0.55598195 Ry

     iteration #  6     ecut=    40.42 Ry     beta= 0.70
     Davidson diagonalization with overlap
     ethr =  3.12E-04,  avg # of iterations =  2.0

     total cpu time spent up to now is        1.9 secs

     total energy              =   -2624.34763074 Ry
     estimated scf accuracy    <       0.21100055 Ry

     iteration #  7     ecut=    40.42 Ry     beta= 0.70
     Davidson diagonalization with overlap
     ethr =  1.19E-04,  avg # of iterations =  2.0

     total cpu time spent up to now is        2.0 secs

     total energy              =   -2624.34397598 Ry
     estimated scf accuracy    <       0.11092638 Ry

     iteration #  8     ecut=    40.42 Ry     beta= 0.70
     Davidson diagonalization with overlap
     ethr =  6.23E-05,  avg # of iterations =  2.0

     total cpu time spent up to now is        2.2 secs

     total energy              =   -2624.34535806 Ry
     estimated scf accuracy    <       0.01817505 Ry

     iteration #  9     ecut=    40.42 Ry     beta= 0.70
     Davidson diagonalization with overlap
     ethr =  1.02E-05,  avg # of iterations = 15.0

     total cpu time spent up to now is        2.5 secs

     total energy              =   -2624.34628311 Ry
     estimated scf accuracy    <       0.00492739 Ry

     iteration # 10     ecut=    40.42 Ry     beta= 0.70
     Davidson diagonalization with overlap
     ethr =  2.77E-06,  avg # of iterations =  2.0

     total cpu time spent up to now is        2.7 secs

     total energy              =   -2624.34650183 Ry
     estimated scf accuracy    <       0.00081960 Ry

     iteration # 11     ecut=    40.42 Ry     beta= 0.70
     Davidson diagonalization with overlap
     ethr =  4.60E-07,  avg # of iterations =  2.0

     total cpu time spent up to now is        2.8 secs

     total energy              =   -2624.34654901 Ry
     estimated scf accuracy    <       0.00005204 Ry

     iteration # 12     ecut=    40.42 Ry     beta= 0.70
     Davidson diagonalization with overlap
     ethr =  2.92E-08,  avg # of iterations =  5.0

     total cpu time spent up to now is        3.1 secs

     total energy              =   -2624.34657045 Ry
     estimated scf accuracy    <       0.00004237 Ry

     iteration # 13     ecut=    40.42 Ry     beta= 0.70
     Davidson diagonalization with overlap
     ethr =  2.38E-08,  avg # of iterations =  2.0

     total cpu time spent up to now is        3.3 secs

     total energy              =   -2624.34657340 Ry
     estimated scf accuracy    <       0.00002262 Ry

     iteration # 14     ecut=    40.42 Ry     beta= 0.70
     Davidson diagonalization with overlap
     ethr =  1.27E-08,  avg # of iterations =  2.0

     total cpu time spent up to now is        3.4 secs

     total energy              =   -2624.34657207 Ry
     estimated scf accuracy    <       0.00002512 Ry

     iteration # 15     ecut=    40.42 Ry     beta= 0.70
     Davidson diagonalization with overlap
     ethr =  1.27E-08,  avg # of iterations =  2.0

     total cpu time spent up to now is        3.6 secs

     total energy              =   -2624.34657166 Ry
     estimated scf accuracy    <       0.00004449 Ry

     iteration # 16     ecut=    40.42 Ry     beta= 0.70
     Davidson diagonalization with overlap
     ethr =  1.27E-08,  avg # of iterations =  1.0

     total cpu time spent up to now is        3.8 secs

     total energy              =   -2624.34657451 Ry
     estimated scf accuracy    <       0.00000189 Ry

     iteration # 17     ecut=    40.42 Ry     beta= 0.70
     Davidson diagonalization with overlap
     ethr =  1.06E-09,  avg # of iterations =  2.0

     total cpu time spent up to now is        3.9 secs

     End of self-consistent calculation

          k = 0.0000 0.0000 0.0000 (  6739 PWs)   bands (ev):

   -90.3357 -90.3354 -90.1833 -90.1833 -90.1833 -90.1827 -65.6451 -65.6451
   -50.4082 -50.3731 -50.3224 -50.2743 -50.2670 -50.2583 -50.2544 -50.2338
   -50.1990 -50.1969 -50.1941 -50.1894 -50.1704 -50.1384 -50.0084 -50.0074
   -50.0035 -49.9633 -34.7643 -34.7641 -34.5018 -34.5016 -34.4513 -34.4512
    -1.4364   0.9119   1.2868   1.2971   1.3541   1.3577   1.5661   2.2202
     6.0580   6.2203   6.7517   6.7807   6.7839   6.7943   8.4135   8.4145
     8.4203   8.4308   8.7332   8.7542   8.8943   9.0297   9.1175   9.1713
     9.7237   9.8384   9.8902   9.9783   9.9907  10.0427  10.0885  10.5791
    10.5852  10.9788  10.9908  11.0225  11.0657  11.0742  11.1622  11.3681
    11.3813  11.4302  11.4703  11.5450  11.6142  11.6200  11.6308  11.7460
    11.8084  11.8746  12.1683  12.3245  12.3288  12.4703  12.4807  12.5926
    12.7007  12.9036  13.1091  13.1144  13.2619  13.4516  13.8266  14.8189
    15.4309  15.6947  15.7029  15.9107  15.9323  16.2615  16.3028  16.5443
    16.9596  17.7517  18.2053

     the Fermi energy is    12.8121 ev

!    total energy              =   -2624.34657441 Ry
     estimated scf accuracy    <       0.00000044 Ry
     smearing contrib. (-TS)   =      -0.01813121 Ry
     internal energy E=F+TS    =   -2624.32844321 Ry

     The total energy is F=E-TS. E is the sum of the following terms:
     one-electron contribution =   -1902.37859994 Ry
     hartree contribution      =    1039.05288566 Ry
     xc contribution           =    -351.10158792 Ry
     ewald contribution        =   -1409.90114101 Ry

     convergence has been achieved in  17 iterations

     Forces acting on atoms (cartesian axes, Ry/au):

     atom    1 type  1   force =    -0.00749662    0.00371276    0.01127309
     atom    2 type  1   force =     0.00000000    0.00000000    0.00000000
     atom    3 type  1   force =     0.00749662   -0.00371276   -0.01127309
     atom    4 type  2   force =     0.00000000    0.00000000    0.00000000
     atom    5 type  3   force =    -0.02616294   -0.02373882    0.00251434
     atom    6 type  3   force =    -0.03160212   -0.01036036   -0.00852646
     atom    7 type  3   force =     0.03363989    0.01078837    0.00251434
     atom    8 type  3   force =     0.02477340    0.02218806   -0.00852646
     atom    9 type  1   force =    -0.00053297   -0.00834865   -0.01127309
     atom   10 type  2   force =     0.00000000    0.00000000    0.00000000
     atom   11 type  1   force =     0.00053297    0.00834865    0.01127309
     atom   12 type  1   force =     0.00000000    0.00000000    0.00000000
     atom   13 type  3   force =    -0.03363989   -0.01078837   -0.00251434
     atom   14 type  3   force =    -0.02477340   -0.02218806    0.00852646
     atom   15 type  3   force =     0.02616294    0.02373882   -0.00251434
     atom   16 type  3   force =     0.03160212    0.01036036    0.00852646
     The non-local contrib.  to forces
     atom    1 type  1   force =     0.02086456    0.01402693    0.02216467
     atom    2 type  1   force =     0.00000000    0.00000000    0.00000000
     atom    3 type  1   force =    -0.02086456   -0.01402693   -0.02216467
     atom    4 type  2   force =     0.00000000    0.00000000    0.00000000
     atom    5 type  3   force =     0.00161855   -0.00043036    0.01720107
     atom    6 type  3   force =     0.01756529   -0.01176378    0.02036414
     atom    7 type  3   force =    -0.00043658   -0.00161688    0.01720107
     atom    8 type  3   force =     0.00140509   -0.02109388    0.02036414
     atom    9 type  1   force =     0.02257996    0.01105578   -0.02216467
     atom   10 type  2   force =     0.00000000    0.00000000    0.00000000
     atom   11 type  1   force =    -0.02257996   -0.01105578    0.02216467
     atom   12 type  1   force =     0.00000000    0.00000000    0.00000000
     atom   13 type  3   force =     0.00043658    0.00161688   -0.01720107
     atom   14 type  3   force =    -0.00140509    0.02109388   -0.02036414
     atom   15 type  3   force =    -0.00161855    0.00043036   -0.01720107
     atom   16 type  3   force =    -0.01756529    0.01176378   -0.02036414
     The ionic contribution  to forces
     atom    1 type  1   force =    -0.59233682    1.02595747   -3.26532667
     atom    2 type  1   force =     0.00000000   -0.00000000    0.00000000
     atom    3 type  1   force =     0.59233682   -1.02595747    3.26532667
     atom    4 type  2   force =     0.00000000   -0.00000000    0.00000000
     atom    5 type  3   force =     0.09145966   -0.83832039    0.52198155
     atom    6 type  3   force =    -0.09145933    0.83832020   -0.14064928
     atom    7 type  3   force =     0.68027678   -0.49836630    0.52198157
     atom    8 type  3   force =    -0.68027711    0.49836649   -0.14064931
     atom    9 type  1   force =     0.59233682   -1.02595747    3.26532667
     atom   10 type  2   force =    -0.00000000   -0.00000000    0.00000000
     atom   11 type  1   force =    -0.59233682    1.02595747   -3.26532667
     atom   12 type  1   force =    -0.00000000   -0.00000000   -0.00000000
     atom   13 type  3   force =    -0.68027678    0.49836630   -0.52198157
     atom   14 type  3   force =     0.68027711   -0.49836649    0.14064931
     atom   15 type  3   force =    -0.09145966    0.83832039   -0.52198155
     atom   16 type  3   force =     0.09145933   -0.83832020    0.14064928
     The local contribution  to forces
     atom    1 type  1   force =     0.56431396   -1.03607306    3.25522626
     atom    2 type  1   force =    -0.00000000    0.00000000   -0.00000000
     atom    3 type  1   force =    -0.56431396    1.03607306   -3.25522626
     atom    4 type  2   force =    -0.00000000    0.00000000   -0.00000000
     atom    5 type  3   force =    -0.11764044    0.81918488   -0.53558751
     atom    6 type  3   force =     0.04631193   -0.84132613    0.11594874
     atom    7 type  3   force =    -0.65061453    0.51147174   -0.53558754
     atom    8 type  3   force =     0.70545404   -0.46077069    0.11594876
     atom    9 type  1   force =    -0.61510861    1.00674676   -3.25522626
     atom   10 type  2   force =    -0.00000000    0.00000000   -0.00000000
     atom   11 type  1   force =     0.61510861   -1.00674676    3.25522626
     atom   12 type  1   force =    -0.00000000    0.00000000   -0.00000000
     atom   13 type  3   force =     0.65061453   -0.51147174    0.53558754
     atom   14 type  3   force =    -0.70545404    0.46077069   -0.11594876
     atom   15 type  3   force =     0.11764044   -0.81918488    0.53558751
     atom   16 type  3   force =    -0.04631193    0.84132613   -0.11594874
     The core correction contribution to forces
     atom    1 type  1   force =    -0.00010027   -0.00001382    0.00015375
     atom    2 type  1   force =     0.00000000    0.00000000   -0.00000000
     atom    3 type  1   force =     0.00010027    0.00001382   -0.00015375
     atom    4 type  2   force =     0.00000000   -0.00000000   -0.00000000
     atom    5 type  3   force =    -0.00160345   -0.00402700   -0.00112755
     atom    6 type  3   force =    -0.00401294    0.00426591   -0.00415777
     atom    7 type  3   force =     0.00428919   -0.00062504   -0.00112703
     atom    8 type  3   force =    -0.00168793    0.00560826   -0.00415708
     atom    9 type  1   force =    -0.00006263   -0.00007925   -0.00015315
     atom   10 type  2   force =     0.00000000   -0.00000000    0.00000000
     atom   11 type  1   force =     0.00006263    0.00007925    0.00015315
     atom   12 type  1   force =    -0.00000000    0.00000000   -0.00000000
     atom   13 type  3   force =    -0.00428919    0.00062504    0.00112703
     atom   14 type  3   force =     0.00168793   -0.00560826    0.00415708
     atom   15 type  3   force =     0.00160345    0.00402700    0.00112755
     atom   16 type  3   force =     0.00401294   -0.00426591    0.00415777
     The Hubbard contrib.    to forces
     atom    1 type  1   force =     0.00000000    0.00000000    0.00000000
     atom    2 type  1   force =     0.00000000    0.00000000    0.00000000
     atom    3 type  1   force =     0.00000000    0.00000000    0.00000000
     atom    4 type  2   force =     0.00000000    0.00000000    0.00000000
     atom    5 type  3   force =     0.00000000    0.00000000    0.00000000
     atom    6 type  3   force =     0.00000000    0.00000000    0.00000000
     atom    7 type  3   force =     0.00000000    0.00000000    0.00000000
     atom    8 type  3   force =     0.00000000    0.00000000    0.00000000
     atom    9 type  1   force =     0.00000000    0.00000000    0.00000000
     atom   10 type  2   force =     0.00000000    0.00000000    0.00000000
     atom   11 type  1   force =     0.00000000    0.00000000    0.00000000
     atom   12 type  1   force =     0.00000000    0.00000000    0.00000000
     atom   13 type  3   force =     0.00000000    0.00000000    0.00000000
     atom   14 type  3   force =     0.00000000    0.00000000    0.00000000
     atom   15 type  3   force =     0.00000000    0.00000000    0.00000000
     atom   16 type  3   force =     0.00000000    0.00000000    0.00000000
     The SCF correction term to forces
     atom    1 type  1   force =    -0.00023806   -0.00018425   -0.00094454
     atom    2 type  1   force =     0.00000000   -0.00000000   -0.00000000
     atom    3 type  1   force =     0.00023806    0.00018425    0.00094454
     atom    4 type  2   force =     0.00000000    0.00000000   -0.00000000
     atom    5 type  3   force =     0.00000266   -0.00014591    0.00004652
     atom    6 type  3   force =    -0.00000710    0.00014346   -0.00003263
     atom    7 type  3   force =     0.00012502   -0.00007524    0.00004652
     atom    8 type  3   force =    -0.00012067    0.00007786   -0.00003264
     atom    9 type  1   force =    -0.00027895   -0.00011422    0.00094469
     atom   10 type  2   force =     0.00000000    0.00000000   -0.00000000
     atom   11 type  1   force =     0.00027895    0.00011422   -0.00094469
     atom   12 type  1   force =    -0.00000000   -0.00000000    0.00000000
     atom   13 type  3   force =    -0.00012502    0.00007524   -0.00004652
     atom   14 type  3   force =     0.00012067   -0.00007786    0.00003264
     atom   15 type  3   force =    -0.00000266    0.00014591   -0.00004652
     atom   16 type  3   force =     0.00000710   -0.00014346    0.00003263

     Total force =     0.102570     Total SCF correction =     0.002028

     BFGS Geometry Optimization
     Energy error            =      0.0E+00 Ry
     Gradient error          =      3.4E-02 Ry/Bohr

     number of scf cycles    =   1
     number of bfgs steps    =   0

     energy             new  =   -2624.3465744117 Ry

     new trust radius        =       0.0354168442 bohr
     new conv_thr            =       0.0000010000 Ry


ATOMIC_POSITIONS (angstrom)
Ni           -0.0039670428        0.0019647091        0.0059654637
Ni            0.0000000000        0.0000000000        2.5225330000
Ni            0.0039670428       -0.0019647091        5.0391005363
Mn            0.0000000000        0.0000000000        7.5675990000
As           -0.0138448514        2.0923439198        6.3076630290
As           -0.0167231423        2.0994234918       11.3468864899
As            1.8407035059        1.0581619213        3.7851300290
As            1.8360115621        1.0641943804        8.8243534899
Ni            3.6455220166       -0.0044179144        2.5165675363
Mn            3.6458040500        0.0000000000        5.0450660000
Ni            3.6460860834        0.0044179144        7.5735644637
Ni            3.6458040500        0.0000000000       10.0901320000
As            3.6280025691        2.0991970032       11.3500679710
As            3.6326945129        2.0931645441       16.4009765101
As            5.4825509264        1.0650150047        8.8275349710
As            5.4854292173        1.0579354327       13.8784435101



     Writing config-only to output data dir ./tutorial.save/
     NEW-OLD atomic charge density approx. for the potential

     Check: negative core charge=   -0.000035

     total cpu time spent up to now is        4.2 secs

     Self-consistent Calculation

     iteration #  1     ecut=    40.42 Ry     beta= 0.70
     Davidson diagonalization with overlap
     ethr =  1.00E-06,  avg # of iterations =  7.0

     total cpu time spent up to now is        4.6 secs

     total energy              =   -2624.35218249 Ry
     estimated scf accuracy    <       0.02192405 Ry

     iteration #  2     ecut=    40.42 Ry     beta= 0.70
     Davidson diagonalization with overlap
     ethr =  1.23E-05,  avg # of iterations =  3.0

     total cpu time spent up to now is        4.8 secs

     total energy              =   -2624.33272269 Ry
     estimated scf accuracy    <       0.47542588 Ry

     iteration #  3     ecut=    40.42 Ry     beta= 0.70
     Davidson diagonalization with overlap
     ethr =  1.23E-05,  avg # of iterations =  3.0

     total cpu time spent up to now is        5.0 secs

     total energy              =   -2624.33423482 Ry
     estimated scf accuracy    <       0.71269863 Ry

     iteration #  4     ecut=    40.42 Ry     beta= 0.70
     Davidson diagonalization with overlap
     ethr =  1.23E-05,  avg # of iterations =  2.0

     total cpu time spent up to now is        5.2 secs

     total energy              =   -2624.35615286 Ry
     estimated scf accuracy    <       0.00773864 Ry

     iteration #  5     ecut=    40.42 Ry     beta= 0.70
     Davidson diagonalization with overlap
     ethr =  4.35E-06,  avg # of iterations =  2.0

     total cpu time spent up to now is        5.3 secs

     total energy              =   -2624.35616243 Ry
     estimated scf accuracy    <       0.00481585 Ry

     iteration #  6     ecut=    40.42 Ry     beta= 0.70
     Davidson diagonalization with overlap
     ethr =  2.71E-06,  avg # of iterations =  1.0

     total cpu time spent up to now is        5.5 secs

     total energy              =   -2624.35609342 Ry
     estimated scf accuracy    <       0.00371355 Ry

     iteration #  7     ecut=    40.42 Ry     beta= 0.70
     Davidson diagonalization with overlap
     ethr =  2.09E-06,  avg # of iterations =  1.0

     total cpu time spent up to now is        5.6 secs

     total energy              =   -2624.35622725 Ry
     estimated scf accuracy    <       0.00012266 Ry

     iteration #  8     ecut=    40.42 Ry     beta= 0.70
     Davidson diagonalization with overlap
     ethr =  6.89E-08,  avg # of iterations =  2.0

     total cpu time spent up to now is        5.8 secs

     total energy              =   -2624.35623438 Ry
     estimated scf accuracy    <       0.00005485 Ry

     iteration #  9     ecut=    40.42 Ry     beta= 0.70
     Davidson diagonalization with overlap
     ethr =  3.08E-08,  avg # of iterations =  1.0

     total cpu time spent up to now is        6.0 secs

     total energy              =   -2624.35623662 Ry
     estimated scf accuracy    <       0.00001626 Ry

     iteration # 10     ecut=    40.42 Ry     beta= 0.70
     Davidson diagonalization with overlap
     ethr =  9.13E-09,  avg # of iterations =  2.0

     total cpu time spent up to now is        6.1 secs

     total energy              =   -2624.35623674 Ry
     estimated scf accuracy    <       0.00000991 Ry

     iteration # 11     ecut=    40.42 Ry     beta= 0.70
     Davidson diagonalization with overlap
     ethr =  5.56E-09,  avg # of iterations =  1.0

     total cpu time spent up to now is        6.3 secs

     total energy              =   -2624.35623683 Ry
     estimated scf accuracy    <       0.00000678 Ry

     iteration # 12     ecut=    40.42 Ry     beta= 0.70
     Davidson diagonalization with overlap
     ethr =  3.81E-09,  avg # of iterations =  1.0

     total cpu time spent up to now is        6.4 secs

     End of self-consistent calculation

          k = 0.0000 0.0000 0.0000 (  6739 PWs)   bands (ev):

   -90.3493 -90.3489 -90.1946 -90.1946 -90.1946 -90.1939 -65.6584 -65.6584
   -50.4163 -50.3816 -50.3337 -50.2866 -50.2803 -50.2780 -50.2727 -50.2458
   -50.2152 -50.2134 -50.2083 -50.2072 -50.1910 -50.1600 -50.0080 -50.0075
   -50.0036 -49.9634 -34.7726 -34.7723 -34.5122 -34.5120 -34.4715 -34.4715
    -1.4345   0.9601   1.2814   1.2949   1.3582   1.3626   1.5042   2.2227
     6.0794   6.2684   6.7712   6.7979   6.8049   6.8084   8.4046   8.4110
     8.4143   8.4195   8.7128   8.7658   8.8582   8.9846   9.0360   9.2440
     9.6973   9.8300   9.8872   9.9667   9.9815  10.0348  10.0704  10.5731
    10.5742  10.9720  10.9840  11.0201  11.0577  11.0692  11.1582  11.3433
    11.3578  11.4342  11.4710  11.5298  11.5950  11.5994  11.6279  11.7332
    11.7932  11.8682  12.1491  12.3311  12.3324  12.4557  12.4704  12.5594
    12.6709  12.8930  13.0378  13.1877  13.2620  13.4573  13.8196  14.7733
    15.4348  15.6950  15.7025  15.9090  15.9206  16.2615  16.2867  16.5684
    16.9876  17.7384  18.2031

     the Fermi energy is    12.7896 ev

!    total energy              =   -2624.35623682 Ry
     estimated scf accuracy    <       0.00000051 Ry
     smearing contrib. (-TS)   =      -0.01760151 Ry
     internal energy E=F+TS    =   -2624.33863531 Ry

     The total energy is F=E-TS. E is the sum of the following terms:
     one-electron contribution =   -1902.47142505 Ry
     hartree contribution      =    1039.04348948 Ry
     xc contribution           =    -351.09766211 Ry
     ewald contribution        =   -1409.81303763 Ry

     convergence has been achieved in  12 iterations

     Forces acting on atoms (cartesian axes, Ry/au):

     atom    1 type  1   force =    -0.00612233    0.00133751    0.01082236
     atom    2 type  1   force =     0.00000000    0.00000000    0.00000000
     atom    3 type  1   force =     0.00612233   -0.00133751   -0.01082236
     atom    4 type  2   force =     0.00000000    0.00000000    0.00000000
     atom    5 type  3   force =    -0.02181386   -0.01960630    0.00152023
     atom    6 type  3   force =    -0.02539051   -0.00829090   -0.00848990
     atom    7 type  3   force =     0.02788648    0.00908821    0.00152023
     atom    8 type  3   force =     0.01987539    0.01784338   -0.00848990
     atom    9 type  1   force =    -0.00190284   -0.00597085   -0.01082236
     atom   10 type  2   force =     0.00000000    0.00000000    0.00000000
     atom   11 type  1   force =     0.00190284    0.00597085    0.01082236
     atom   12 type  1   force =     0.00000000    0.00000000    0.00000000
     atom   13 type  3   force =    -0.02788648   -0.00908821   -0.00152023
     atom   14 type  3   force =    -0.01987539   -0.01784338    0.00848990
     atom   15 type  3   force =     0.02181386    0.01960630   -0.00152023
     atom   16 type  3   force =     0.02539051    0.00829090    0.00848990
     The non-local contrib.  to forces
     atom    1 type  1   force =     0.02148369    0.01444706    0.01990461
     atom    2 type  1   force =     0.00000000    0.00000000    0.00000000
     atom    3 type  1   force =    -0.02148369   -0.01444706   -0.01990461
     atom    4 type  2   force =     0.00000000    0.00000000    0.00000000
     atom    5 type  3   force =     0.00332277    0.00354164    0.01779900
     atom    6 type  3   force =     0.01772126   -0.01283096    0.01878538
     atom    7 type  3   force =    -0.00472854   -0.00110678    0.01779900
     atom    8 type  3   force =     0.00225130   -0.02176254    0.01878538
     atom    9 type  1   force =     0.02325337    0.01138189   -0.01990461
     atom   10 type  2   force =     0.00000000    0.00000000    0.00000000
     atom   11 type  1   force =    -0.02325337   -0.01138189    0.01990461
     atom   12 type  1   force =     0.00000000    0.00000000    0.00000000
     atom   13 type  3   force =     0.00472854    0.00110678   -0.01779900
     atom   14 type  3   force =    -0.00225130    0.02176254   -0.01878538
     atom   15 type  3   force =    -0.00332277   -0.00354164   -0.01779900
     atom   16 type  3   force =    -0.01772126    0.01283096   -0.01878538
     The ionic contribution  to forces
     atom    1 type  1   force =    -0.43701821    0.94148431   -3.46221385
     atom    2 type  1   force =     0.00000000   -0.00000000    0.00000000
     atom    3 type  1   force =     0.43701821   -0.94148431    3.46221385
     atom    4 type  2   force =     0.00000000   -0.00000000    0.00000000
     atom    5 type  3   force =     0.17665586   -0.76964620    0.47750741
     atom    6 type  3   force =     0.09866560    0.92395707   -0.05252943
     atom    7 type  3   force =     0.57820508   -0.53781127    0.47750744
     atom    8 type  3   force =    -0.84950329    0.37653191   -0.05252945
     atom    9 type  1   force =     0.59684022   -0.84921103    3.46221385
     atom   10 type  2   force =     0.00000000   -0.00000000   -0.00000000
     atom   11 type  1   force =    -0.59684022    0.84921103   -3.46221385
     atom   12 type  1   force =     0.00000000   -0.00000000   -0.00000000
     atom   13 type  3   force =    -0.57820508    0.53781127   -0.47750744
     atom   14 type  3   force =     0.84950329   -0.37653191    0.05252945
     atom   15 type  3   force =    -0.17665586    0.76964620   -0.47750741
     atom   16 type  3   force =    -0.09866560   -0.92395707    0.05252943
     The local contribution  to forces
     atom    1 type  1   force =     0.40947071   -0.95431888    3.45247023
     atom    2 type  1   force =    -0.00000000    0.00000000   -0.00000000
     atom    3 type  1   force =    -0.40947071    0.95431888   -3.45247023
     atom    4 type  2   force =    -0.00000000    0.00000000   -0.00000000
     atom    5 type  3   force =    -0.19918110    0.75175538   -0.49285242
     atom    6 type  3   force =    -0.13632317   -0.92315093    0.02958060
     atom    7 type  3   force =    -0.55144854    0.54837327   -0.49285244
     atom    8 type  3   force =     0.86763395   -0.34351647    0.02958062
     atom    9 type  1   force =    -0.62172904    0.83177148   -3.45247023
     atom   10 type  2   force =    -0.00000000    0.00000000   -0.00000000
     atom   11 type  1   force =     0.62172904   -0.83177148    3.45247023
     atom   12 type  1   force =    -0.00000000    0.00000000   -0.00000000
     atom   13 type  3   force =     0.55144854   -0.54837327    0.49285244
     atom   14 type  3   force =    -0.86763395    0.34351647   -0.02958062
     atom   15 type  3   force =     0.19918110   -0.75175538    0.49285242
     atom   16 type  3   force =     0.13632317    0.92315093   -0.02958060
     The core correction contribution to forces
     atom    1 type  1   force =    -0.00041268    0.00004680    0.00035820
     atom    2 type  1   force =     0.00000000    0.00000000   -0.00000000
     atom    3 type  1   force =     0.00041268   -0.00004680   -0.00035820
     atom    4 type  2   force =     0.00000000    0.00000000   -0.00000000
     atom    5 type  3   force =    -0.00261349   -0.00533973   -0.00089488
     atom    6 type  3   force =    -0.00545573    0.00381143   -0.00433700
     atom    7 type  3   force =     0.00593105   -0.00040667   -0.00089428
     atom    8 type  3   force =    -0.00057299    0.00663048   -0.00433607
     atom    9 type  1   force =    -0.00016475   -0.00037845   -0.00035659
     atom   10 type  2   force =    -0.00000000    0.00000000   -0.00000000
     atom   11 type  1   force =     0.00016475    0.00037845    0.00035659
     atom   12 type  1   force =    -0.00000000    0.00000000   -0.00000000
     atom   13 type  3   force =    -0.00593105    0.00040667    0.00089428
     atom   14 type  3   force =     0.00057299   -0.00663048    0.00433607
     atom   15 type  3   force =     0.00261349    0.00533973    0.00089488
     atom   16 type  3   force =     0.00545573   -0.00381143    0.00433700
     The Hubbard contrib.    to forces
     atom    1 type  1   force =     0.00000000    0.00000000    0.00000000
     atom    2 type  1   force =     0.00000000    0.00000000    0.00000000
     atom    3 type  1   force =     0.00000000    0.00000000    0.00000000
     atom    4 type  2   force =     0.00000000    0.00000000    0.00000000
     atom    5 type  3   force =     0.00000000    0.00000000    0.00000000
     atom    6 type  3   force =     0.00000000    0.00000000    0.00000000
     atom    7 type  3   force =     0.00000000    0.00000000    0.00000000
     atom    8 type  3   force =     0.00000000    0.00000000    0.00000000
     atom    9 type  1   force =     0.00000000    0.00000000    0.00000000
     atom   10 type  2   force =     0.00000000    0.00000000    0.00000000
     atom   11 type  1   force =     0.00000000    0.00000000    0.00000000
     atom   12 type  1   force =     0.00000000    0.00000000    0.00000000
     atom   13 type  3   force =     0.00000000    0.00000000    0.00000000
     atom   14 type  3   force =     0.00000000    0.00000000    0.00000000
     atom   15 type  3   force =     0.00000000    0.00000000    0.00000000
     atom   16 type  3   force =     0.00000000    0.00000000    0.00000000
     The SCF correction term to forces
     atom    1 type  1   force =     0.00035313   -0.00032166    0.00030365
     atom    2 type  1   force =     0.00000000   -0.00000000    0.00000000
     atom    3 type  1   force =    -0.00035313    0.00032166   -0.00030365
     atom    4 type  2   force =     0.00000000   -0.00000000   -0.00000000
     atom    5 type  3   force =     0.00000202    0.00008264   -0.00003919
     atom    6 type  3   force =     0.00000149   -0.00007752    0.00001010
     atom    7 type  3   force =    -0.00007259    0.00003958   -0.00003919
     atom    8 type  3   force =     0.00006639   -0.00004004    0.00001009
     atom    9 type  1   force =    -0.00010224    0.00046623   -0.00030430
     atom   10 type  2   force =     0.00000000   -0.00000000   -0.00000000
     atom   11 type  1   force =     0.00010224   -0.00046623    0.00030430
     atom   12 type  1   force =     0.00000000   -0.00000000    0.00000000
     atom   13 type  3   force =     0.00007259   -0.00003958    0.00003919
     atom   14 type  3   force =    -0.00006639    0.00004004   -0.00001009
     atom   15 type  3   force =    -0.00000202   -0.00008264    0.00003919
     atom   16 type  3   force =    -0.00000149    0.00007752   -0.00001010

     Total force =     0.084958     Total SCF correction =     0.001157
     Energy error            =      9.7E-03 Ry
     Gradient error          =      2.8E-02 Ry/Bohr

     number of scf cycles    =   2
     number of bfgs steps    =   1

     energy             old  =   -2624.3465744117 Ry
     energy             new  =   -2624.3562368211 Ry

     CASE: energy            _new < energy            _old


     WARNING: bfgs curvature condition failed, Theta= 0.968
     new trust radius        =       0.0389585286 bohr
     new conv_thr            =       0.0000002789 Ry


ATOMIC_POSITIONS (angstrom)
Ni           -0.0082679620        0.0029643739        0.0135108678
Ni           -0.0000000000        0.0000000000        2.5225330000
Ni            0.0082679620       -0.0029643739        5.0315551322
Mn           -0.0000000000        0.0000000000        7.5675990000
As           -0.0291531836        2.0785783199        6.3087498859
As           -0.0345747390        2.0935931206       11.3409764654
As            1.8602790312        1.0645365260        3.7862168859
As            1.8499866101        1.0767391310        8.8184434654
Ni            3.6442372921       -0.0086424521        2.5090221322
Mn            3.6458040500        0.0000000000        5.0450660000
Ni            3.6473708079        0.0086424521        7.5811098678
Ni            3.6458040500        0.0000000000       10.0901320000
As            3.6084270438        2.0928223985       11.3489811141
As            3.6187194649        2.0806197935       16.4068865346
As            5.4978592586        1.0787806046        8.8264481141
As            5.5032808140        1.0637658039       13.8843535346



     Writing config-only to output data dir ./tutorial.save/
     NEW-OLD atomic charge density approx. for the potential

     Check: negative core charge=   -0.000035

     total cpu time spent up to now is        6.7 secs

     Self-consistent Calculation

     iteration #  1     ecut=    40.42 Ry     beta= 0.70
     Davidson diagonalization with overlap
     ethr =  1.00E-06,  avg # of iterations =  8.0

     total cpu time spent up to now is        7.1 secs

     total energy              =   -2624.35858484 Ry
     estimated scf accuracy    <       0.03339031 Ry

     iteration #  2     ecut=    40.42 Ry     beta= 0.70
     Davidson diagonalization with overlap
     ethr =  1.88E-05,  avg # of iterations =  3.0

     total cpu time spent up to now is        7.3 secs

     total energy              =   -2624.33906561 Ry
     estimated scf accuracy    <       0.60338625 Ry

     iteration #  3     ecut=    40.42 Ry     beta= 0.70
     Davidson diagonalization with overlap
     ethr =  1.88E-05,  avg # of iterations =  3.0

     total cpu time spent up to now is        7.5 secs

     total energy              =   -2624.34332126 Ry
     estimated scf accuracy    <       0.66622180 Ry

     iteration #  4     ecut=    40.42 Ry     beta= 0.70
     Davidson diagonalization with overlap
     ethr =  1.88E-05,  avg # of iterations =  2.0

     total cpu time spent up to now is        7.7 secs

     total energy              =   -2624.36441472 Ry
     estimated scf accuracy    <       0.01278810 Ry

     iteration #  5     ecut=    40.42 Ry     beta= 0.70
     Davidson diagonalization with overlap
     ethr =  7.18E-06,  avg # of iterations =  1.0

     total cpu time spent up to now is        7.8 secs

     total energy              =   -2624.36458209 Ry
     estimated scf accuracy    <       0.00902161 Ry

     iteration #  6     ecut=    40.42 Ry     beta= 0.70
     Davidson diagonalization with overlap
     ethr =  5.07E-06,  avg # of iterations =  1.0

     total cpu time spent up to now is        8.0 secs

     total energy              =   -2624.36468886 Ry
     estimated scf accuracy    <       0.00525930 Ry

     iteration #  7     ecut=    40.42 Ry     beta= 0.70
     Davidson diagonalization with overlap
     ethr =  2.95E-06,  avg # of iterations =  1.0

     total cpu time spent up to now is        8.1 secs

     total energy              =   -2624.36471745 Ry
     estimated scf accuracy    <       0.00057764 Ry

     iteration #  8     ecut=    40.42 Ry     beta= 0.70
     Davidson diagonalization with overlap
     ethr =  3.25E-07,  avg # of iterations =  2.0

     total cpu time spent up to now is        8.3 secs

     total energy              =   -2624.36475451 Ry
     estimated scf accuracy    <       0.00014942 Ry

     iteration #  9     ecut=    40.42 Ry     beta= 0.70
     Davidson diagonalization with overlap
     ethr =  8.39E-08,  avg # of iterations =  1.0

     total cpu time spent up to now is        8.5 secs

     total energy              =   -2624.36475898 Ry
     estimated scf accuracy    <       0.00001568 Ry

     iteration # 10     ecut=    40.42 Ry     beta= 0.70
     Davidson diagonalization with overlap
     ethr =  8.81E-09,  avg # of iterations =  2.0

     total cpu time spent up to now is        8.6 secs

     total energy              =   -2624.36475930 Ry
     estimated scf accuracy    <       0.00000884 Ry

     iteration # 11     ecut=    40.42 Ry     beta= 0.70
     Davidson diagonalization with overlap
     ethr =  4.97E-09,  avg # of iterations =  2.0

     total cpu time spent up to now is        8.8 secs

     total energy              =   -2624.36475961 Ry
     estimated scf accuracy    <       0.00001023 Ry

     iteration # 12     ecut=    40.42 Ry     beta= 0.70
     Davidson diagonalization with overlap
     ethr =  4.97E-09,  avg # of iterations =  1.0

     total cpu time spent up to now is        9.0 secs

     total energy              =   -2624.36475967 Ry
     estimated scf accuracy    <       0.00000180 Ry

     iteration # 13     ecut=    40.42 Ry     beta= 0.70
     Davidson diagonalization with overlap
     ethr =  1.01E-09,  avg # of iterations =  2.0

     total cpu time spent up to now is        9.1 secs

     total energy              =   -2624.36475959 Ry
     estimated scf accuracy    <       0.00000179 Ry

     iteration # 14     ecut=    40.42 Ry     beta= 0.70
     Davidson diagonalization with overlap
     ethr =  1.00E-09,  avg # of iterations =  2.0

     total cpu time spent up to now is        9.3 secs

     total energy              =   -2624.36475962 Ry
     estimated scf accuracy    <       0.00000423 Ry

     iteration # 15     ecut=    40.42 Ry     beta= 0.70
     Davidson diagonalization with overlap
     ethr =  1.00E-09,  avg # of iterations =  1.0

     total cpu time spent up to now is        9.4 secs

     total energy              =   -2624.36475979 Ry
     estimated scf accuracy    <       0.00000029 Ry

     iteration # 16     ecut=    40.42 Ry     beta= 0.70
     Davidson diagonalization with overlap
     ethr =  1.62E-10,  avg # of iterations =  2.0

     total cpu time spent up to now is        9.6 secs

     End of self-consistent calculation

          k = 0.0000 0.0000 0.0000 (  6739 PWs)   bands (ev):

   -90.3737 -90.3733 -90.2176 -90.2176 -90.2175 -90.2169 -65.6874 -65.6874
   -50.4333 -50.4000 -50.3568 -50.3106 -50.3102 -50.3042 -50.3033 -50.2689
   -50.2453 -50.2395 -50.2367 -50.2348 -50.2236 -50.1940 -50.0176 -50.0176
   -50.0138 -49.9737 -34.7957 -34.7954 -34.5370 -34.5366 -34.5083 -34.5083
    -1.4326   1.0150   1.2730   1.2917   1.3652   1.3698   1.4385   2.2281
     6.0904   6.3306   6.7928   6.8112   6.8217   6.8318   8.3931   8.4049
     8.4062   8.4070   8.6864   8.7743   8.8195   8.9304   8.9434   9.3249
     9.6618   9.8098   9.8842   9.9498   9.9672  10.0225  10.0480  10.5536
    10.5610  10.9542  10.9663  11.0088  11.0407  11.0578  11.1456  11.3088
    11.3243  11.4296  11.4644  11.5051  11.5675  11.5710  11.6185  11.7110
    11.7696  11.8529  12.1197  12.3282  12.3307  12.4293  12.4491  12.5127
    12.6265  12.8716  12.9569  13.2524  13.2757  13.4557  13.8023  14.7175
    15.4422  15.6955  15.7020  15.8779  15.9270  16.2611  16.2703  16.5920
    17.0136  17.7193  18.2015

     the Fermi energy is    12.7504 ev

!    total energy              =   -2624.36475981 Ry
     estimated scf accuracy    <       0.00000002 Ry
     smearing contrib. (-TS)   =      -0.01797842 Ry
     internal energy E=F+TS    =   -2624.34678139 Ry

     The total energy is F=E-TS. E is the sum of the following terms:
     one-electron contribution =   -1902.68340724 Ry
     hartree contribution      =    1039.03873058 Ry
     xc contribution           =    -351.09023929 Ry
     ewald contribution        =   -1409.61186545 Ry

     convergence has been achieved in  16 iterations

     Forces acting on atoms (cartesian axes, Ry/au):

     atom    1 type  1   force =    -0.00614838   -0.00118471    0.01107552
     atom    2 type  1   force =     0.00000000    0.00000000    0.00000000
     atom    3 type  1   force =     0.00614838    0.00118471   -0.01107552
     atom    4 type  2   force =     0.00000000    0.00000000    0.00000000
     atom    5 type  3   force =    -0.01680826   -0.01459501    0.00038860
     atom    6 type  3   force =    -0.01842418   -0.00625094   -0.00809650
     atom    7 type  3   force =     0.02104378    0.00725887    0.00038860
     atom    8 type  3   force =     0.01462556    0.01283034   -0.00809650
     atom    9 type  1   force =    -0.00410018   -0.00473230   -0.01107552
     atom   10 type  2   force =     0.00000000    0.00000000    0.00000000
     atom   11 type  1   force =     0.00410018    0.00473230    0.01107552
     atom   12 type  1   force =     0.00000000    0.00000000    0.00000000
     atom   13 type  3   force =    -0.02104378   -0.00725887   -0.00038860
     atom   14 type  3   force =    -0.01462556   -0.01283034    0.00809650
     atom   15 type  3   force =     0.01680826    0.01459501   -0.00038860
     atom   16 type  3   force =     0.01842418    0.00625094    0.00809650
     The non-local contrib.  to forces
     atom    1 type  1   force =     0.02096110    0.01671600    0.01952033
     atom    2 type  1   force =     0.00000000    0.00000000    0.00000000
     atom    3 type  1   force =    -0.02096110   -0.01671600   -0.01952033
     atom    4 type  2   force =     0.00000000    0.00000000    0.00000000
     atom    5 type  3   force =     0.00521289    0.00900330    0.01830494
     atom    6 type  3   force =     0.01775642   -0.01486018    0.01715828
     atom    7 type  3   force =    -0.01040353   -0.00001284    0.01830494
     atom    8 type  3   force =     0.00399109   -0.02280760    0.01715828
     atom    9 type  1   force =     0.02495703    0.00979484   -0.01952033
     atom   10 type  2   force =     0.00000000    0.00000000    0.00000000
     atom   11 type  1   force =    -0.02495703   -0.00979484    0.01952033
     atom   12 type  1   force =     0.00000000    0.00000000    0.00000000
     atom   13 type  3   force =     0.01040353    0.00001284   -0.01830494
     atom   14 type  3   force =    -0.00399109    0.02280760   -0.01715828
     atom   15 type  3   force =    -0.00521289   -0.00900330   -0.01830494
     atom   16 type  3   force =    -0.01775642    0.01486018   -0.01715828
     The ionic contribution  to forces
     atom    1 type  1   force =    -0.28756628    0.88164981   -3.73222958
     atom    2 type  1   force =     0.00000000   -0.00000000    0.00000000
     atom    3 type  1   force =     0.28756628   -0.88164981    3.73222958
     atom    4 type  2   force =     0.00000000   -0.00000000    0.00000000
     atom    5 type  3   force =     0.27106328   -0.70486701    0.43857193
     atom    6 type  3   force =     0.29368072    1.02106484    0.04048402
     atom    7 type  3   force =     0.47490094   -0.58718089    0.43857195
     atom    8 type  3   force =    -1.03110865    0.25619776    0.04048400
     atom    9 type  1   force =     0.61974799   -0.68986461    3.73222958
     atom   10 type  2   force =     0.00000000   -0.00000000   -0.00000000
     atom   11 type  1   force =    -0.61974799    0.68986461   -3.73222958
     atom   12 type  1   force =     0.00000000   -0.00000000   -0.00000000
     atom   13 type  3   force =    -0.47490094    0.58718089   -0.43857195
     atom   14 type  3   force =     1.03110865   -0.25619776   -0.04048400
     atom   15 type  3   force =    -0.27106328    0.70486701   -0.43857193
     atom   16 type  3   force =    -0.29368072   -1.02106484   -0.04048402
     The local contribution  to forces
     atom    1 type  1   force =     0.26096056   -0.89950440    3.72331423
     atom    2 type  1   force =    -0.00000000    0.00000000   -0.00000000
     atom    3 type  1   force =    -0.26096056    0.89950440   -3.72331423
     atom    4 type  2   force =    -0.00000000    0.00000000   -0.00000000
     atom    5 type  3   force =    -0.28940757    0.68816335   -0.45581966
     atom    6 type  3   force =    -0.32297900   -1.01594027   -0.06116869
     atom    7 type  3   force =    -0.45126298    0.59471565   -0.45581968
     atom    8 type  3   force =     1.04131979   -0.22826246   -0.06116866
     atom    9 type  1   force =    -0.64851339    0.67575067   -3.72331423
     atom   10 type  2   force =    -0.00000000    0.00000000   -0.00000000
     atom   11 type  1   force =     0.64851339   -0.67575067    3.72331423
     atom   12 type  1   force =    -0.00000000    0.00000000   -0.00000000
     atom   13 type  3   force =     0.45126298   -0.59471565    0.45581968
     atom   14 type  3   force =    -1.04131979    0.22826246    0.06116866
     atom   15 type  3   force =     0.28940757   -0.68816335    0.45581966
     atom   16 type  3   force =     0.32297900    1.01594027    0.06116869
     The core correction contribution to forces
     atom    1 type  1   force =    -0.00062935   -0.00005340    0.00051827
     atom    2 type  1   force =     0.00000000    0.00000000   -0.00000000
     atom    3 type  1   force =     0.00062935    0.00005340   -0.00051827
     atom    4 type  2   force =    -0.00000000   -0.00000000    0.00000000
     atom    5 type  3   force =    -0.00367737   -0.00688996   -0.00066902
     atom    6 type  3   force =    -0.00688059    0.00348098   -0.00456730
     atom    7 type  3   force =     0.00780554   -0.00026046   -0.00066847
     atom    8 type  3   force =     0.00042566    0.00769922   -0.00456634
     atom    9 type  1   force =    -0.00035832   -0.00051437   -0.00051606
     atom   10 type  2   force =    -0.00000000    0.00000000   -0.00000000
     atom   11 type  1   force =     0.00035832    0.00051437    0.00051606
     atom   12 type  1   force =    -0.00000000    0.00000000   -0.00000000
     atom   13 type  3   force =    -0.00780554    0.00026046    0.00066847
     atom   14 type  3   force =    -0.00042566   -0.00769922    0.00456634
     atom   15 type  3   force =     0.00367737    0.00688996    0.00066902
     atom   16 type  3   force =     0.00688059   -0.00348098    0.00456730
     The Hubbard contrib.    to forces
     atom    1 type  1   force =     0.00000000    0.00000000    0.00000000
     atom    2 type  1   force =     0.00000000    0.00000000    0.00000000
     atom    3 type  1   force =     0.00000000    0.00000000    0.00000000
     atom    4 type  2   force =     0.00000000    0.00000000    0.00000000
     atom    5 type  3   force =     0.00000000    0.00000000    0.00000000
     atom    6 type  3   force =     0.00000000    0.00000000    0.00000000
     atom    7 type  3   force =     0.00000000    0.00000000    0.00000000
     atom    8 type  3   force =     0.00000000    0.00000000    0.00000000
     atom    9 type  1   force =     0.00000000    0.00000000    0.00000000
     atom   10 type  2   force =     0.00000000    0.00000000    0.00000000
     atom   11 type  1   force =     0.00000000    0.00000000    0.00000000
     atom   12 type  1   force =     0.00000000    0.00000000    0.00000000
     atom   13 type  3   force =     0.00000000    0.00000000    0.00000000
     atom   14 type  3   force =     0.00000000    0.00000000    0.00000000
     atom   15 type  3   force =     0.00000000    0.00000000    0.00000000
     atom   16 type  3   force =     0.00000000    0.00000000    0.00000000
     The SCF correction term to forces
     atom    1 type  1   force =     0.00012324    0.00000712   -0.00004668
     atom    2 type  1   force =     0.00000000   -0.00000000    0.00000000
     atom    3 type  1   force =    -0.00012324   -0.00000712    0.00004668
     atom    4 type  2   force =    -0.00000000    0.00000000    0.00000000
     atom    5 type  3   force =     0.00000043   -0.00000464    0.00000013
     atom    6 type  3   force =    -0.00000176    0.00000371   -0.00000330
     atom    7 type  3   force =     0.00000380   -0.00000269    0.00000013
     atom    8 type  3   force =    -0.00000233    0.00000339   -0.00000330
     atom    9 type  1   force =     0.00006782    0.00010314    0.00004656
     atom   10 type  2   force =    -0.00000000   -0.00000000   -0.00000000
     atom   11 type  1   force =    -0.00006782   -0.00010314   -0.00004656
     atom   12 type  1   force =    -0.00000000   -0.00000000   -0.00000000
     atom   13 type  3   force =    -0.00000380    0.00000269   -0.00000013
     atom   14 type  3   force =     0.00000233   -0.00000339    0.00000330
     atom   15 type  3   force =    -0.00000043    0.00000464   -0.00000013
     atom   16 type  3   force =     0.00000176   -0.00000371    0.00000330

     Total force =     0.066382     Total SCF correction =     0.000264
     Energy error            =      8.5E-03 Ry
     Gradient error          =      2.1E-02 Ry/Bohr

     number of scf cycles    =   3
     number of bfgs steps    =   2

     energy             old  =   -2624.3562368211 Ry
     energy             new  =   -2624.3647598059 Ry

     CASE: energy            _new < energy            _old

     new trust radius        =       0.0584377929 bohr
     new conv_thr            =       0.0000002104 Ry


ATOMIC_POSITIONS (angstrom)
Ni           -0.0162256769        0.0023216109        0.0276519325
Ni           -0.0000000000        0.0000000000        2.5225330000
Ni            0.0162256769       -0.0023216109        5.0174140675
Mn           -0.0000000000        0.0000000000        7.5675990000
As           -0.0523878698        2.0581906644        6.3096350057
As           -0.0605594613        2.0848714024       11.3304943917
As            1.8895526019        1.0744645267        3.7871020057
As            1.8705322008        1.0948817016        8.8079613917
Ni            3.6397017856       -0.0152126538        2.4948810675
Mn            3.6458040500        0.0000000000        5.0450660000
Ni            3.6519063144        0.0152126538        7.5952509325
Ni            3.6458040500        0.0000000000       10.0901320000
As            3.5791534731        2.0828943978       11.3480959943
As            3.5981738742        2.0624772229       16.4173686083
As            5.5210939448        1.0991682601        8.8255629943
As            5.5292655363        1.0724875221       13.8948356083



     Writing config-only to output data dir ./tutorial.save/
     NEW-OLD atomic charge density approx. for the potential

     Check: negative core charge=   -0.000035

     total cpu time spent up to now is        9.9 secs

     Self-consistent Calculation

     iteration #  1     ecut=    40.42 Ry     beta= 0.70
     Davidson diagonalization with overlap
     ethr =  1.00E-06,  avg # of iterations =  9.0

     total cpu time spent up to now is       10.3 secs

     total energy              =   -2624.35382803 Ry
     estimated scf accuracy    <       0.12613202 Ry

     iteration #  2     ecut=    40.42 Ry     beta= 0.70
     Davidson diagonalization with overlap
     ethr =  7.09E-05,  avg # of iterations =  2.0

     total cpu time spent up to now is       10.5 secs

     total energy              =   -2624.26724001 Ry
     estimated scf accuracy    <       1.55145539 Ry

     iteration #  3     ecut=    40.42 Ry     beta= 0.70
     Davidson diagonalization with overlap
     ethr =  7.09E-05,  avg # of iterations =  4.0

     total cpu time spent up to now is       10.7 secs

     total energy              =   -2624.24327219 Ry
     estimated scf accuracy    <       4.24074632 Ry

     iteration #  4     ecut=    40.42 Ry     beta= 0.70
     Davidson diagonalization with overlap
     ethr =  7.09E-05,  avg # of iterations =  3.0

     total cpu time spent up to now is       10.9 secs

     total energy              =   -2624.37324930 Ry
     estimated scf accuracy    <       0.06679113 Ry

     iteration #  5     ecut=    40.42 Ry     beta= 0.70
     Davidson diagonalization with overlap
     ethr =  3.75E-05,  avg # of iterations =  1.0

     total cpu time spent up to now is       11.1 secs

     total energy              =   -2624.37392562 Ry
     estimated scf accuracy    <       0.03615442 Ry

     iteration #  6     ecut=    40.42 Ry     beta= 0.70
     Davidson diagonalization with overlap
     ethr =  2.03E-05,  avg # of iterations =  1.0

     total cpu time spent up to now is       11.2 secs

     total energy              =   -2624.37374102 Ry
     estimated scf accuracy    <       0.02566008 Ry

     iteration #  7     ecut=    40.42 Ry     beta= 0.70
     Davidson diagonalization with overlap
     ethr =  1.44E-05,  avg # of iterations =  1.0

     total cpu time spent up to now is       11.4 secs

     total energy              =   -2624.37355384 Ry
     estimated scf accuracy    <       0.00959483 Ry

     iteration #  8     ecut=    40.42 Ry     beta= 0.70
     Davidson diagonalization with overlap
     ethr =  5.39E-06,  avg # of iterations =  2.0

     total cpu time spent up to now is       11.5 secs

     total energy              =   -2624.37387529 Ry
     estimated scf accuracy    <       0.00136924 Ry

     iteration #  9     ecut=    40.42 Ry     beta= 0.70
     Davidson diagonalization with overlap
     ethr =  7.69E-07,  avg # of iterations =  2.0

     total cpu time spent up to now is       11.7 secs

     total energy              =   -2624.37391721 Ry
     estimated scf accuracy    <       0.00028660 Ry

     iteration # 10     ecut=    40.42 Ry     beta= 0.70
     Davidson diagonalization with overlap
     ethr =  1.61E-07,  avg # of iterations =  1.0

     total cpu time spent up to now is       11.9 secs

     total energy              =   -2624.37390064 Ry
     estimated scf accuracy    <       0.00019803 Ry

     iteration # 11     ecut=    40.42 Ry     beta= 0.70
     Davidson diagonalization with overlap
     ethr =  1.11E-07,  avg # of iterations =  2.0

     total cpu time spent up to now is       12.0 secs

     total energy              =   -2624.37390829 Ry
     estimated scf accuracy    <       0.00003040 Ry

     iteration # 12     ecut=    40.42 Ry     beta= 0.70
     Davidson diagonalization with overlap
     ethr =  1.71E-08,  avg # of iterations =  2.0

     total cpu time spent up to now is       12.2 secs

     total energy              =   -2624.37390979 Ry
     estimated scf accuracy    <       0.00000642 Ry

     iteration # 13     ecut=    40.42 Ry     beta= 0.70
     Davidson diagonalization with overlap
     ethr =  3.61E-09,  avg # of iterations =  4.0

     total cpu time spent up to now is       12.4 secs

     total energy              =   -2624.37391027 Ry
     estimated scf accuracy    <       0.00000090 Ry

     iteration # 14     ecut=    40.42 Ry     beta= 0.70
     Davidson diagonalization with overlap
     ethr =  5.06E-10,  avg # of iterations =  4.0

     total cpu time spent up to now is       12.6 secs

     total energy              =   -2624.37391017 Ry
     estimated scf accuracy    <       0.00000480 Ry

     iteration # 15     ecut=    40.42 Ry     beta= 0.70
     Davidson diagonalization with overlap
     ethr =  5.06E-10,  avg # of iterations =  2.0

     total cpu time spent up to now is       12.8 secs

     total energy              =   -2624.37391038 Ry
     estimated scf accuracy    <       0.00000077 Ry

     iteration # 16     ecut=    40.42 Ry     beta= 0.70
     Davidson diagonalization with overlap
     ethr =  4.35E-10,  avg # of iterations =  1.0

     total cpu time spent up to now is       12.9 secs

     End of self-consistent calculation

          k = 0.0000 0.0000 0.0000 (  6739 PWs)   bands (ev):

   -90.4146 -90.4143 -90.2650 -90.2649 -90.2648 -90.2642 -65.7386 -65.7386
   -50.4623 -50.4328 -50.3993 -50.3729 -50.3617 -50.3513 -50.3471 -50.3125
   -50.3005 -50.2897 -50.2881 -50.2868 -50.2790 -50.2574 -50.0461 -50.0459
   -50.0422 -50.0033 -34.8383 -34.8380 -34.5841 -34.5836 -34.5675 -34.5674
    -1.4322   1.0979   1.2454   1.2827   1.3493   1.3785   1.3817   2.2379
     6.0925   6.4309   6.8259   6.8269   6.8376   6.8733   8.3726   8.3787
     8.3936   8.3962   8.6430   8.7611   8.7633   8.8182   8.8482   9.4469
     9.6026   9.7654   9.8783   9.9203   9.9412  10.0041  10.0171  10.5196
    10.5333  10.9135  10.9253  10.9854  11.0064  11.0343  11.1197  11.2486
    11.2644  11.4135  11.4496  11.4644  11.5193  11.5218  11.6031  11.6737
    11.7335  11.8238  12.0689  12.3095  12.3204  12.3835  12.4098  12.4336
    12.5507  12.8338  12.8422  13.2330  13.4070  13.4498  13.7705  14.6284
    15.4583  15.6969  15.7022  15.8248  15.9336  16.2533  16.2605  16.6274
    17.0479  17.6859  18.2000

     the Fermi energy is    12.6820 ev

!    total energy              =   -2624.37391037 Ry
     estimated scf accuracy    <       0.00000013 Ry
     smearing contrib. (-TS)   =      -0.01896472 Ry
     internal energy E=F+TS    =   -2624.35494565 Ry

     The total energy is F=E-TS. E is the sum of the following terms:
     one-electron contribution =   -1903.38864770 Ry
     hartree contribution      =    1039.18426744 Ry
     xc contribution           =    -351.08026608 Ry
     ewald contribution        =   -1409.07029932 Ry

     convergence has been achieved in  16 iterations

     Forces acting on atoms (cartesian axes, Ry/au):

     atom    1 type  1   force =    -0.00621854   -0.00595901    0.01077809
     atom    2 type  1   force =     0.00000000    0.00000000    0.00000000
     atom    3 type  1   force =     0.00621854    0.00595901   -0.01077809
     atom    4 type  2   force =     0.00000000    0.00000000    0.00000000
     atom    5 type  3   force =    -0.01005011   -0.00723395   -0.00131896
     atom    6 type  3   force =    -0.00863297   -0.00378732   -0.00698559
     atom    7 type  3   force =     0.01128984    0.00508667   -0.00131896
     atom    8 type  3   force =     0.00759639    0.00558271   -0.00698559
     atom    9 type  1   force =    -0.00826992   -0.00240591   -0.01077809
     atom   10 type  2   force =     0.00000000    0.00000000    0.00000000
     atom   11 type  1   force =     0.00826992    0.00240591    0.01077809
     atom   12 type  1   force =     0.00000000    0.00000000    0.00000000
     atom   13 type  3   force =    -0.01128984   -0.00508667    0.00131896
     atom   14 type  3   force =    -0.00759639   -0.00558271    0.00698559
     atom   15 type  3   force =     0.01005011    0.00723395    0.00131896
     atom   16 type  3   force =     0.00863297    0.00378732    0.00698559
     The non-local contrib.  to forces
     atom    1 type  1   force =     0.02286885    0.02232776    0.01991608
     atom    2 type  1   force =     0.00000000    0.00000000    0.00000000
     atom    3 type  1   force =    -0.02286885   -0.02232776   -0.01991608
     atom    4 type  2   force =     0.00000000    0.00000000    0.00000000
     atom    5 type  3   force =     0.00734894    0.01871253    0.01871917
     atom    6 type  3   force =     0.01782117   -0.01966548    0.01465947
     atom    7 type  3   force =    -0.01988000    0.00299190    0.01871917
     atom    8 type  3   force =     0.00812022   -0.02526633    0.01465947
     atom    9 type  1   force =     0.03077083    0.00864112   -0.01991608
     atom   10 type  2   force =     0.00000000    0.00000000    0.00000000
     atom   11 type  1   force =    -0.03077083   -0.00864112    0.01991608
     atom   12 type  1   force =     0.00000000    0.00000000    0.00000000
     atom   13 type  3   force =     0.01988000   -0.00299190   -0.01871917
     atom   14 type  3   force =    -0.00812022    0.02526633   -0.01465947
     atom   15 type  3   force =    -0.00734894   -0.01871253   -0.01871917
     atom   16 type  3   force =    -0.01782117    0.01966548   -0.01465947
     The ionic contribution  to forces
     atom    1 type  1   force =    -0.08503473    0.84342983   -4.28384959
     atom    2 type  1   force =     0.00000000   -0.00000000    0.00000000
     atom    3 type  1   force =     0.08503473   -0.84342983    4.28384959
     atom    4 type  2   force =     0.00000000   -0.00000000    0.00000000
     atom    5 type  3   force =     0.40083937   -0.63668684    0.38835013
     atom    6 type  3   force =     0.57349934    1.18064185    0.18235233
     atom    7 type  3   force =     0.35096713   -0.66548018    0.38835016
     atom    8 type  3   force =    -1.30921571    0.09365624    0.18235230
     atom    9 type  1   force =     0.68791428   -0.49535715    4.28384959
     atom   10 type  2   force =     0.00000000   -0.00000000   -0.00000000
     atom   11 type  1   force =    -0.68791428    0.49535715   -4.28384959
     atom   12 type  1   force =     0.00000000   -0.00000000   -0.00000000
     atom   13 type  3   force =    -0.35096713    0.66548018   -0.38835016
     atom   14 type  3   force =     1.30921571   -0.09365624   -0.18235230
     atom   15 type  3   force =    -0.40083937    0.63668684   -0.38835013
     atom   16 type  3   force =    -0.57349934   -1.18064185   -0.18235233
     The local contribution  to forces
     atom    1 type  1   force =     0.05666878   -0.87138266    4.27429691
     atom    2 type  1   force =    -0.00000000    0.00000000   -0.00000000
     atom    3 type  1   force =    -0.05666878    0.87138266   -4.27429691
     atom    4 type  2   force =    -0.00000000    0.00000000   -0.00000000
     atom    5 type  3   force =    -0.41316705    0.62011002   -0.40807171
     atom    6 type  3   force =    -0.59104271   -1.16803860   -0.19898890
     atom    7 type  3   force =    -0.33044732    0.66786783   -0.40807173
     atom    8 type  3   force =     1.30707267   -0.07216165   -0.19898887
     atom    9 type  1   force =    -0.72630513    0.48476793   -4.27429691
     atom   10 type  2   force =    -0.00000000    0.00000000   -0.00000000
     atom   11 type  1   force =     0.72630513   -0.48476793    4.27429691
     atom   12 type  1   force =    -0.00000000    0.00000000   -0.00000000
     atom   13 type  3   force =     0.33044732   -0.66786783    0.40807173
     atom   14 type  3   force =    -1.30707267    0.07216165    0.19898887
     atom   15 type  3   force =     0.41316705   -0.62011002    0.40807171
     atom   16 type  3   force =     0.59104271    1.16803860    0.19898890
     The core correction contribution to forces
     atom    1 type  1   force =    -0.00086346   -0.00046694    0.00052580
     atom    2 type  1   force =     0.00000000    0.00000000   -0.00000000
     atom    3 type  1   force =     0.00086346    0.00046694   -0.00052580
     atom    4 type  2   force =    -0.00000000    0.00000000   -0.00000000
     atom    5 type  3   force =    -0.00508806   -0.00934150   -0.00033057
     atom    6 type  3   force =    -0.00889552    0.00324622   -0.00498536
     atom    7 type  3   force =     0.01063408   -0.00026454   -0.00033044
     atom    8 type  3   force =     0.00163666    0.00932700   -0.00498479
     atom    9 type  1   force =    -0.00083128   -0.00050857   -0.00052440
     atom   10 type  2   force =    -0.00000000    0.00000000   -0.00000000
     atom   11 type  1   force =     0.00083128    0.00050857    0.00052440
     atom   12 type  1   force =    -0.00000000    0.00000000   -0.00000000
     atom   13 type  3   force =    -0.01063408    0.00026454    0.00033044
     atom   14 type  3   force =    -0.00163666   -0.00932700    0.00498479
     atom   15 type  3   force =     0.00508806    0.00934150    0.00033057
     atom   16 type  3   force =     0.00889552   -0.00324622    0.00498536
     The Hubbard contrib.    to forces
     atom    1 type  1   force =     0.00000000    0.00000000    0.00000000
     atom    2 type  1   force =     0.00000000    0.00000000    0.00000000
     atom    3 type  1   force =     0.00000000    0.00000000    0.00000000
     atom    4 type  2   force =     0.00000000    0.00000000    0.00000000
     atom    5 type  3   force =     0.00000000    0.00000000    0.00000000
     atom    6 type  3   force =     0.00000000    0.00000000    0.00000000
     atom    7 type  3   force =     0.00000000    0.00000000    0.00000000
     atom    8 type  3   force =     0.00000000    0.00000000    0.00000000
     atom    9 type  1   force =     0.00000000    0.00000000    0.00000000
     atom   10 type  2   force =     0.00000000    0.00000000    0.00000000
     atom   11 type  1   force =     0.00000000    0.00000000    0.00000000
     atom   12 type  1   force =     0.00000000    0.00000000    0.00000000
     atom   13 type  3   force =     0.00000000    0.00000000    0.00000000
     atom   14 type  3   force =     0.00000000    0.00000000    0.00000000
     atom   15 type  3   force =     0.00000000    0.00000000    0.00000000
     atom   16 type  3   force =     0.00000000    0.00000000    0.00000000
     The SCF correction term to forces
     atom    1 type  1   force =     0.00013823    0.00013228   -0.00011042
     atom    2 type  1   force =    -0.00000000   -0.00000000   -0.00000000
     atom    3 type  1   force =    -0.00013823   -0.00013228    0.00011042
     atom    4 type  2   force =     0.00000000    0.00000000   -0.00000000
     atom    5 type  3   force =     0.00001663   -0.00002806    0.00001395
     atom    6 type  3   force =    -0.00001515    0.00002876   -0.00002342
     atom    7 type  3   force =     0.00001599   -0.00002844    0.00001395
     atom    8 type  3   force =    -0.00001733    0.00002751   -0.00002342
     atom    9 type  1   force =     0.00018389    0.00005368    0.00011040
     atom   10 type  2   force =    -0.00000000    0.00000000   -0.00000000
     atom   11 type  1   force =    -0.00018389   -0.00005368   -0.00011040
     atom   12 type  1   force =    -0.00000000    0.00000000   -0.00000000
     atom   13 type  3   force =    -0.00001599    0.00002844   -0.00001395
     atom   14 type  3   force =     0.00001733   -0.00002751    0.00002342
     atom   15 type  3   force =    -0.00001663    0.00002806   -0.00001395
     atom   16 type  3   force =     0.00001515   -0.00002876    0.00002342

     Total force =     0.043959     Total SCF correction =     0.000455
     Energy error            =      9.2E-03 Ry
     Gradient error          =      1.1E-02 Ry/Bohr

     number of scf cycles    =   4
     number of bfgs steps    =   3

     energy             old  =   -2624.3647598059 Ry
     energy             new  =   -2624.3739103713 Ry

     CASE: energy            _new < energy            _old

     new trust radius        =       0.0876566893 bohr
     new conv_thr            =       0.0000001129 Ry


ATOMIC_POSITIONS (angstrom)
Ni           -0.0315017621       -0.0048840924        0.0542324147
Ni           -0.0000000000        0.0000000000        2.5225330000
Ni            0.0315017621        0.0048840924        4.9908335853
Mn           -0.0000000000        0.0000000000        7.5675990000
As           -0.0881285389        2.0286263841        6.3091749045
As           -0.0977302781        2.0713602142       11.3119304372
As            1.9330263542        1.0906347140        3.7866419045
As            1.9008186414        1.1203169791        8.7893974372
Ni            3.6258234209       -0.0248392800        2.4683005853
Mn            3.6458040500        0.0000000000        5.0450660000
Ni            3.6657846791        0.0248392800        7.6218314147
Ni            3.6458040500        0.0000000000       10.0901320000
As            3.5356797208        2.0667242105       11.3485560955
As            3.5678874336        2.0370419454       16.4359325628
As            5.5568346139        1.1287325404        8.8260230955
As            5.5664363531        1.0859987103       13.9133995628



     Writing config-only to output data dir ./tutorial.save/
     NEW-OLD atomic charge density approx. for the potential

     Check: negative core charge=   -0.000035

     total cpu time spent up to now is       13.2 secs

     Self-consistent Calculation

     iteration #  1     ecut=    40.42 Ry     beta= 0.70
     Davidson diagonalization with overlap
     ethr =  1.00E-06,  avg # of iterations = 10.0

     total cpu time spent up to now is       13.7 secs

     total energy              =   -2624.33765678 Ry
     estimated scf accuracy    <       0.51149988 Ry

     iteration #  2     ecut=    40.42 Ry     beta= 0.70
     Davidson diagonalization with overlap
     ethr =  2.87E-04,  avg # of iterations =  2.0

     total cpu time spent up to now is       13.9 secs

     total energy              =   -2623.87684653 Ry
     estimated scf accuracy    <       2.28622026 Ry

     iteration #  3     ecut=    40.42 Ry     beta= 0.70
     Davidson diagonalization with overlap
     ethr =  2.87E-04,  avg # of iterations =  3.0

     total cpu time spent up to now is       14.1 secs

     total energy              =   -2623.82420892 Ry
     estimated scf accuracy    <      14.40874415 Ry

     iteration #  4     ecut=    40.42 Ry     beta= 0.70
     Davidson diagonalization with overlap
     ethr =  2.87E-04,  avg # of iterations =  3.0

     total cpu time spent up to now is       14.3 secs

     total energy              =   -2624.12873813 Ry
     estimated scf accuracy    <       4.52671629 Ry

     iteration #  5     ecut=    40.42 Ry     beta= 0.70
     Davidson diagonalization with overlap
     ethr =  2.87E-04,  avg # of iterations =  2.0

     total cpu time spent up to now is       14.5 secs

     total energy              =   -2624.38186364 Ry
     estimated scf accuracy    <       0.13233539 Ry

     iteration #  6     ecut=    40.42 Ry     beta= 0.70
     Davidson diagonalization with overlap
     ethr =  7.43E-05,  avg # of iterations =  2.0

     total cpu time spent up to now is       14.6 secs

     total energy              =   -2624.30188539 Ry
     estimated scf accuracy    <       1.03281455 Ry

     iteration #  7     ecut=    40.42 Ry     beta= 0.70
     Davidson diagonalization with overlap
     ethr =  7.43E-05,  avg # of iterations =  2.0

     total cpu time spent up to now is       14.8 secs

     total energy              =   -2624.38838357 Ry
     estimated scf accuracy    <       0.47390471 Ry

     iteration #  8     ecut=    40.42 Ry     beta= 0.70
     Davidson diagonalization with overlap
     ethr =  7.43E-05,  avg # of iterations =  1.0

     total cpu time spent up to now is       15.0 secs

     total energy              =   -2624.39271081 Ry
     estimated scf accuracy    <       0.41454721 Ry

     iteration #  9     ecut=    40.42 Ry     beta= 0.70
     Davidson diagonalization with overlap
     ethr =  7.43E-05,  avg # of iterations =  1.0

     total cpu time spent up to now is       15.1 secs

     total energy              =   -2624.33017895 Ry
     estimated scf accuracy    <       0.49418412 Ry

     iteration # 10     ecut=    40.42 Ry     beta= 0.70
     Davidson diagonalization with overlap
     ethr =  7.43E-05,  avg # of iterations =  2.0

     total cpu time spent up to now is       15.3 secs

     total energy              =   -2624.55113679 Ry
     estimated scf accuracy    <       0.79081833 Ry

     iteration # 11     ecut=    40.42 Ry     beta= 0.70
     Davidson diagonalization with overlap
     ethr =  7.43E-05,  avg # of iterations =  4.0

     total cpu time spent up to now is       15.6 secs

     total energy              =   -2624.30033396 Ry
     estimated scf accuracy    <      21.19465938 Ry

     iteration # 12     ecut=    40.42 Ry     beta= 0.70
     Davidson diagonalization with overlap
     ethr =  7.43E-05,  avg # of iterations =  3.0

     total cpu time spent up to now is       15.8 secs

     total energy              =   -2624.50350211 Ry
     estimated scf accuracy    <       4.29441979 Ry

     iteration # 13     ecut=    40.42 Ry     beta= 0.70
     Davidson diagonalization with overlap
     ethr =  7.43E-05,  avg # of iterations =  1.0

     total cpu time spent up to now is       15.9 secs

     total energy              =   -2624.30194174 Ry
     estimated scf accuracy    <       4.30040279 Ry

     iteration # 14     ecut=    40.42 Ry     beta= 0.70
     Davidson diagonalization with overlap
     ethr =  7.43E-05,  avg # of iterations =  3.0

     total cpu time spent up to now is       16.1 secs

     total energy              =   -2624.41401583 Ry
[...]
     energy             new  =   -2624.4319324841 Ry

     CASE: energy            _new < energy            _old

     new trust radius        =       0.0039026236 bohr
     new conv_thr            =       0.0000000100 Ry


ATOMIC_POSITIONS (angstrom)
Ni           -0.3508852059       -0.2057708309        0.1399061966
Ni           -0.0000000000        0.0000000000        2.5225330000
Ni            0.3508852059        0.2057708309        4.9051598034
Mn           -0.0000000000        0.0000000000        7.5675990000
As           -0.2323501202        1.9832432392        6.2476150279
As           -0.0761509141        2.0051988728       11.2286026896
As            2.0444401013        1.1928426948        3.7250820279
As            1.9473263618        1.0685480310        8.7060696896
Ni            3.2921586802       -0.2009900866        2.3826268034
Mn            3.6458040500        0.0000000000        5.0450660000
Ni            3.9994494198        0.2009900866        7.7075051966
Ni            3.6458040500       -0.0000000000       10.0901320000
As            3.4242659737        1.9645162297       11.4101159721
As            3.5213797132        2.0888108935       16.5192603104
As            5.7010561952        1.1741156853        8.8875829721
As            5.5448569891        1.1521600517       13.9967273104



     Writing config-only to output data dir ./tutorial.save/
     NEW-OLD atomic charge density approx. for the potential

     Check: negative core charge=   -0.000036

     total cpu time spent up to now is      199.8 secs

     Self-consistent Calculation

     iteration #  1     ecut=    40.42 Ry     beta= 0.70
     Davidson diagonalization with overlap
     ethr =  1.00E-06,  avg # of iterations =  5.0

     total cpu time spent up to now is      200.0 secs

     total energy              =   -2624.43191812 Ry
     estimated scf accuracy    <       0.00138281 Ry

     iteration #  2     ecut=    40.42 Ry     beta= 0.70
     Davidson diagonalization with overlap
     ethr =  7.77E-07,  avg # of iterations =  2.0

     total cpu time spent up to now is      200.2 secs

     total energy              =   -2624.43208242 Ry
     estimated scf accuracy    <       0.00788663 Ry

     iteration #  3     ecut=    40.42 Ry     beta= 0.70
     Davidson diagonalization with overlap
     ethr =  7.77E-07,  avg # of iterations =  2.0

     total cpu time spent up to now is      200.4 secs

     total energy              =   -2624.43272073 Ry
     estimated scf accuracy    <       0.00735199 Ry

     iteration #  4     ecut=    40.42 Ry     beta= 0.70
     Davidson diagonalization with overlap
     ethr =  7.77E-07,  avg # of iterations =  3.0

     total cpu time spent up to now is      200.6 secs

     total energy              =   -2624.42955047 Ry
     estimated scf accuracy    <       0.06132883 Ry

     iteration #  5     ecut=    40.42 Ry     beta= 0.70
     Davidson diagonalization with overlap
     ethr =  7.77E-07,  avg # of iterations =  3.0

     total cpu time spent up to now is      200.8 secs

     total energy              =   -2624.43157453 Ry
     estimated scf accuracy    <       0.00803677 Ry

     iteration #  6     ecut=    40.42 Ry     beta= 0.70
     Davidson diagonalization with overlap
     ethr =  7.77E-07,  avg # of iterations =  2.0

     total cpu time spent up to now is      201.0 secs

     total energy              =   -2624.43185840 Ry
     estimated scf accuracy    <       0.00160920 Ry

     iteration #  7     ecut=    40.42 Ry     beta= 0.70
     Davidson diagonalization with overlap
     ethr =  7.77E-07,  avg # of iterations =  2.0

     total cpu time spent up to now is      201.1 secs

     total energy              =   -2624.43194059 Ry
     estimated scf accuracy    <       0.00006150 Ry

     iteration #  8     ecut=    40.42 Ry     beta= 0.70
     Davidson diagonalization with overlap
     ethr =  3.45E-08,  avg # of iterations =  2.0

     total cpu time spent up to now is      201.3 secs

     total energy              =   -2624.43194608 Ry
     estimated scf accuracy    <       0.00013672 Ry

     iteration #  9     ecut=    40.42 Ry     beta= 0.70
     Davidson diagonalization with overlap
     ethr =  3.45E-08,  avg # of iterations =  2.0

     total cpu time spent up to now is      201.5 secs

     total energy              =   -2624.43194548 Ry
     estimated scf accuracy    <       0.00004054 Ry

     iteration # 10     ecut=    40.42 Ry     beta= 0.70
     Davidson diagonalization with overlap
     ethr =  2.28E-08,  avg # of iterations =  2.0

     total cpu time spent up to now is      201.7 secs

     total energy              =   -2624.43194652 Ry
     estimated scf accuracy    <       0.00000319 Ry

     iteration # 11     ecut=    40.42 Ry     beta= 0.70
     Davidson diagonalization with overlap
     ethr =  1.79E-09,  avg # of iterations =  2.0

     total cpu time spent up to now is      201.8 secs

     total energy              =   -2624.43194671 Ry
     estimated scf accuracy    <       0.00000143 Ry

     iteration # 12     ecut=    40.42 Ry     beta= 0.70
     Davidson diagonalization with overlap
     ethr =  8.03E-10,  avg # of iterations =  1.0

     total cpu time spent up to now is      202.0 secs

     total energy              =   -2624.43194664 Ry
     estimated scf accuracy    <       0.00000147 Ry

     iteration # 13     ecut=    40.42 Ry     beta= 0.70
     Davidson diagonalization with overlap
     ethr =  8.03E-10,  avg # of iterations =  2.0

     total cpu time spent up to now is      202.2 secs

     End of self-consistent calculation

          k = 0.0000 0.0000 0.0000 (  6739 PWs)   bands (ev):

   -90.8107 -90.8106 -90.8099 -90.8097 -90.5070 -90.5067 -65.8224 -65.8224
   -50.9706 -50.9428 -50.9342 -50.9218 -50.8375 -50.8339 -50.7799 -50.7358
   -50.5684 -50.5606 -50.5393 -50.5357 -50.5149 -50.4665 -50.4580 -50.4370
   -50.3742 -50.3440 -34.8983 -34.8980 -34.6938 -34.6936 -34.6057 -34.6053
    -1.5049   0.6729   1.0589   1.1404   1.3089   1.4621   1.6436   2.3602
     5.9598   6.7968   6.8046   6.8336   6.9661   7.1580   7.7056   7.9600
     8.0959   8.3597   8.3681   8.4550   8.6914   8.7902   9.0343   9.4004
     9.4056   9.4951   9.6626   9.6832   9.8260   9.8873   9.8929  10.1295
    10.3196  10.5243  10.5717  10.5894  10.6280  10.7338  10.7953  10.9230
    10.9700  11.0713  11.1245  11.2117  11.2747  11.4752  11.4886  11.5640
    11.6245  11.6747  11.6925  11.7676  11.8156  11.9499  12.1803  12.3681
    12.4610  12.8538  13.1590  13.3165  13.3966  13.6110  13.7439  14.3928
    15.3634  15.5392  15.5674  15.9165  15.9846  16.4078  16.5727  16.7065
    16.9618  17.4452  18.2836

     the Fermi energy is    12.6656 ev

!    total energy              =   -2624.43194672 Ry
     estimated scf accuracy    <          8.7E-09 Ry
     smearing contrib. (-TS)   =      -0.00728429 Ry
     internal energy E=F+TS    =   -2624.42466243 Ry

     The total energy is F=E-TS. E is the sum of the following terms:
     one-electron contribution =   -1924.22049966 Ry
     hartree contribution      =    1048.15075259 Ry
     xc contribution           =    -351.15820409 Ry
     ewald contribution        =   -1397.19671127 Ry

     convergence has been achieved in  13 iterations

     Forces acting on atoms (cartesian axes, Ry/au):

     atom    1 type  1   force =    -0.00024629    0.00024892    0.00019434
     atom    2 type  1   force =     0.00000000    0.00000000    0.00000000
     atom    3 type  1   force =     0.00024629   -0.00024892   -0.00019434
     atom    4 type  2   force =     0.00000000    0.00000000    0.00000000
     atom    5 type  3   force =     0.00020578   -0.00000520   -0.00016027
     atom    6 type  3   force =    -0.00001155   -0.00041235    0.00003178
     atom    7 type  3   force =    -0.00009838   -0.00018081   -0.00016027
     atom    8 type  3   force =     0.00036288   -0.00019617    0.00003178
     atom    9 type  1   force =     0.00009243   -0.00033775   -0.00019434
     atom   10 type  2   force =     0.00000000    0.00000000    0.00000000
     atom   11 type  1   force =    -0.00009243    0.00033775    0.00019434
     atom   12 type  1   force =     0.00000000    0.00000000    0.00000000
     atom   13 type  3   force =     0.00009838    0.00018081    0.00016027
     atom   14 type  3   force =    -0.00036288    0.00019617   -0.00003178
     atom   15 type  3   force =    -0.00020578    0.00000520    0.00016027
     atom   16 type  3   force =     0.00001155    0.00041235   -0.00003178
     The non-local contrib.  to forces
     atom    1 type  1   force =    -0.19264424   -0.16703352    0.00799565
     atom    2 type  1   force =     0.00000000    0.00000000    0.00000000
     atom    3 type  1   force =     0.19264424    0.16703352   -0.00799565
     atom    4 type  2   force =     0.00000000    0.00000000    0.00000000
     atom    5 type  3   force =    -0.00160951    0.04773483    0.00486658
     atom    6 type  3   force =    -0.03067433   -0.04556641   -0.01424058
     atom    7 type  3   force =    -0.04053483    0.02526129    0.00486658
     atom    8 type  3   force =     0.05479883    0.00378154   -0.01424058
     atom    9 type  1   force =    -0.24097739   -0.08331805   -0.00799565
     atom   10 type  2   force =     0.00000000    0.00000000    0.00000000
     atom   11 type  1   force =     0.24097739    0.08331805    0.00799565
     atom   12 type  1   force =     0.00000000    0.00000000    0.00000000
     atom   13 type  3   force =     0.04053483   -0.02526129   -0.00486658
     atom   14 type  3   force =    -0.05479883   -0.00378154    0.01424058
     atom   15 type  3   force =     0.00160951   -0.04773483   -0.00486658
     atom   16 type  3   force =     0.03067433    0.04556641    0.01424058
     The ionic contribution  to forces
     atom    1 type  1   force =     1.02447202    4.00174992   -9.10123864
     atom    2 type  1   force =     0.00000000   -0.00000000   -0.00000000
     atom    3 type  1   force =    -1.02447202   -4.00174992    9.10123864
     atom    4 type  2   force =     0.00000000   -0.00000000    0.00000000
     atom    5 type  3   force =    -1.09245414   -0.79071476   -0.69201782
     atom    6 type  3   force =     2.19668863    1.34619361    1.03234265
     atom    7 type  3   force =     1.23100604    0.55073604   -0.69201770
     atom    8 type  3   force =    -2.26418247   -1.22929102    1.03234252
     atom    9 type  1   force =     3.97785316   -1.11365632    9.10123860
     atom   10 type  2   force =     0.00000000   -0.00000000    0.00000000
     atom   11 type  1   force =    -3.97785316    1.11365632   -9.10123860
     atom   12 type  1   force =     0.00000000   -0.00000000   -0.00000000
     atom   13 type  3   force =    -1.23100604   -0.55073604    0.69201770
     atom   14 type  3   force =     2.26418247    1.22929102   -1.03234252
     atom   15 type  3   force =     1.09245414    0.79071476    0.69201782
     atom   16 type  3   force =    -2.19668863   -1.34619361   -1.03234265
     The local contribution  to forces
     atom    1 type  1   force =    -0.85303242   -3.84847044    9.09271377
     atom    2 type  1   force =     0.00000000    0.00000000   -0.00000000
     atom    3 type  1   force =     0.85303242    3.84847044   -9.09271377
     atom    4 type  2   force =    -0.00000000   -0.00000000   -0.00000000
     atom    5 type  3   force =     1.09021334    0.75843864    0.68085181
     atom    6 type  3   force =    -2.15903437   -1.30908878   -1.01108702
     atom    7 type  3   force =    -1.20193367   -0.56493354    0.68085169
     atom    8 type  3   force =     2.21322163    1.21523385   -1.01108690
     atom    9 type  1   force =    -3.75938938    1.18548747   -9.09271377
     atom   10 type  2   force =    -0.00000000   -0.00000000   -0.00000000
     atom   11 type  1   force =     3.75938938   -1.18548747    9.09271377
     atom   12 type  1   force =    -0.00000000   -0.00000000   -0.00000000
     atom   13 type  3   force =     1.20193367    0.56493354   -0.68085169
     atom   14 type  3   force =    -2.21322163   -1.21523385    1.01108690
     atom   15 type  3   force =    -1.09021334   -0.75843864   -0.68085181
     atom   16 type  3   force =     2.15903437    1.30908878    1.01108702
     The core correction contribution to forces
     atom    1 type  1   force =     0.02095379    0.01399426    0.00073346
     atom    2 type  1   force =     0.00000000    0.00000000   -0.00000000
     atom    3 type  1   force =    -0.02095379   -0.01399426   -0.00073346
     atom    4 type  2   force =    -0.00000000    0.00000000   -0.00000000
     atom    5 type  3   force =     0.00406297   -0.01546491    0.00613093
     atom    6 type  3   force =    -0.00699992    0.00805072   -0.00699619
     atom    7 type  3   force =     0.01136241   -0.01125089    0.00613196
     atom    8 type  3   force =    -0.00347146    0.01008573   -0.00699496
     atom    9 type  1   force =     0.02255749    0.01108500   -0.00064599
     atom   10 type  2   force =    -0.00000000   -0.00000000   -0.00000000
     atom   11 type  1   force =    -0.02255749   -0.01108500    0.00064599
     atom   12 type  1   force =    -0.00000000   -0.00000000   -0.00000000
     atom   13 type  3   force =    -0.01136241    0.01125089   -0.00613196
     atom   14 type  3   force =     0.00347146   -0.01008573    0.00699496
     atom   15 type  3   force =    -0.00406297    0.01546491   -0.00613093
     atom   16 type  3   force =     0.00699992   -0.00805072    0.00699619
     The Hubbard contrib.    to forces
     atom    1 type  1   force =     0.00000000    0.00000000    0.00000000
     atom    2 type  1   force =     0.00000000    0.00000000    0.00000000
     atom    3 type  1   force =     0.00000000    0.00000000    0.00000000
     atom    4 type  2   force =     0.00000000    0.00000000    0.00000000
     atom    5 type  3   force =     0.00000000    0.00000000    0.00000000
     atom    6 type  3   force =     0.00000000    0.00000000    0.00000000
     atom    7 type  3   force =     0.00000000    0.00000000    0.00000000
     atom    8 type  3   force =     0.00000000    0.00000000    0.00000000
     atom    9 type  1   force =     0.00000000    0.00000000    0.00000000
     atom   10 type  2   force =     0.00000000    0.00000000    0.00000000
     atom   11 type  1   force =     0.00000000    0.00000000    0.00000000
     atom   12 type  1   force =     0.00000000    0.00000000    0.00000000
     atom   13 type  3   force =     0.00000000    0.00000000    0.00000000
     atom   14 type  3   force =     0.00000000    0.00000000    0.00000000
     atom   15 type  3   force =     0.00000000    0.00000000    0.00000000
     atom   16 type  3   force =     0.00000000    0.00000000    0.00000000
     The SCF correction term to forces
     atom    1 type  1   force =     0.00004218    0.00000930    0.00003357
     atom    2 type  1   force =    -0.00000000    0.00000000    0.00000000
     atom    3 type  1   force =    -0.00004218   -0.00000930   -0.00003357
     atom    4 type  2   force =    -0.00000000    0.00000000   -0.00000000
     atom    5 type  3   force =    -0.00000657    0.00000135    0.00000772
     atom    6 type  3   force =     0.00000785   -0.00000072    0.00001232
     atom    7 type  3   force =     0.00000212    0.00000637    0.00000772
     atom    8 type  3   force =    -0.00000330   -0.00000715    0.00001232
     atom    9 type  1   force =     0.00002921    0.00003187   -0.00003406
     atom   10 type  2   force =    -0.00000000   -0.00000000   -0.00000000
     atom   11 type  1   force =    -0.00002921   -0.00003187    0.00003406
     atom   12 type  1   force =     0.00000000    0.00000000    0.00000000
     atom   13 type  3   force =    -0.00000212   -0.00000637   -0.00000772
     atom   14 type  3   force =     0.00000330    0.00000715   -0.00001232
     atom   15 type  3   force =     0.00000657   -0.00000135   -0.00000772
     atom   16 type  3   force =    -0.00000785    0.00000072   -0.00001232

     Total force =     0.001264     Total SCF correction =     0.000115
     Energy error            =      1.4E-05 Ry
     Gradient error          =      4.1E-04 Ry/Bohr

     bfgs converged in  44 scf cycles and  27 bfgs steps
     (criteria: energy <  1.0E-04 Ry, force <  1.0E-03 Ry/Bohr)

     End of BFGS Geometry Optimization

     Final energy             =   -2624.4319467163 Ry

     File ./tutorial.bfgs deleted, as requested
Begin final coordinates

ATOMIC_POSITIONS (angstrom)
Ni           -0.3508852059       -0.2057708309        0.1399061966
Ni           -0.0000000000        0.0000000000        2.5225330000
Ni            0.3508852059        0.2057708309        4.9051598034
Mn           -0.0000000000        0.0000000000        7.5675990000
As           -0.2323501202        1.9832432392        6.2476150279
As           -0.0761509141        2.0051988728       11.2286026896
As            2.0444401013        1.1928426948        3.7250820279
As            1.9473263618        1.0685480310        8.7060696896
Ni            3.2921586802       -0.2009900866        2.3826268034
Mn            3.6458040500        0.0000000000        5.0450660000
Ni            3.9994494198        0.2009900866        7.7075051966
Ni            3.6458040500       -0.0000000000       10.0901320000
As            3.4242659737        1.9645162297       11.4101159721
As            3.5213797132        2.0888108935       16.5192603104
As            5.7010561952        1.1741156853        8.8875829721
As            5.5448569891        1.1521600517       13.9967273104
End final coordinates



     Writing all to output data dir ./tutorial.save/
 
     init_run     :      0.25s CPU      0.27s WALL (       1 calls)
     electrons    :    182.91s CPU    190.10s WALL (      44 calls)
     update_pot   :      4.77s CPU      4.80s WALL (      43 calls)
     forces       :      5.11s CPU      5.39s WALL (      44 calls)

     Called by init_run:
     wfcinit      :      0.05s CPU      0.06s WALL (       1 calls)
     potinit      :      0.04s CPU      0.05s WALL (       1 calls)
     hinit0       :      0.12s CPU      0.12s WALL (       1 calls)

     Called by electrons:
     c_bands      :    130.90s CPU    134.43s WALL (    1027 calls)
     sum_band     :     31.69s CPU     34.47s WALL (    1027 calls)
     v_of_rho     :      4.83s CPU      4.88s WALL (    1071 calls)
     newd         :     15.17s CPU     15.27s WALL (    1071 calls)
     mix_rho      :      0.76s CPU      0.77s WALL (    1027 calls)

     Called by c_bands:
     init_us_2    :      0.61s CPU      0.73s WALL (    2055 calls)
     init_us_2:cp :      0.61s CPU      0.72s WALL (    2055 calls)
     cegterg      :    127.67s CPU    130.93s WALL (    1027 calls)

     Called by *egterg:
     cdiaghg      :     37.25s CPU     38.44s WALL (    3203 calls)
     h_psi        :     69.19s CPU     70.98s WALL (    3247 calls)
     s_psi        :      3.75s CPU      3.78s WALL (    3247 calls)
     g_psi        :      0.26s CPU      0.26s WALL (    2219 calls)

     Called by h_psi:
     h_psi:calbec :      4.23s CPU      4.29s WALL (    3247 calls)
     vloc_psi     :     61.06s CPU     62.77s WALL (    3247 calls)
     add_vuspsi   :      3.55s CPU      3.58s WALL (    3247 calls)

     General routines
     calbec       :      6.24s CPU      6.33s WALL (    4450 calls)
     fft          :      2.75s CPU      2.79s WALL (   12308 calls)
     ffts         :      0.28s CPU      0.28s WALL (    1027 calls)
     fftw         :     67.30s CPU     69.23s WALL (  616089 calls)
 
     Parallel routines
 
     PWSCF        :   3m14.27s CPU   3m22.40s WALL

 
   This run was terminated on:  14:10:43  30May2023            

=------------------------------------------------------------------------------=
   JOB DONE.
=------------------------------------------------------------------------------=
